/*--------------------------------*- C++ -*----------------------------------*\
  =========                 |
  \\      /  F ield         | OpenFOAM: The Open Source CFD Toolbox
   \\    /   O peration     | Website:  https://openfoam.org
    \\  /    A nd           | Version:  8
     \\/     M anipulation  |
\*---------------------------------------------------------------------------*/
FoamFile
{
    version     2.0;
    format      ascii;
    class       volScalarField;
    location    "7200/buildings";
    object      pc;
}
// * * * * * * * * * * * * * * * * * * * * * * * * * * * * * * * * * * * * * //

dimensions      [1 -1 -2 0 0 0 0];

internalField   nonuniform List<scalar> 
3640
(
-9062889.8
-9518271.5
-9808997.8
-9783159.7
-9783761.9
-9722845.7
-9220711.2
-9119363.7
-9778964.4
-9839493.9
-9459180.6
-9367675
-9456114.8
-9484410.4
-9527069.2
-9202134.3
-9799231.5
-9941721.5
-9875164.3
-9622846.7
-9819154.9
-9828227.8
-9796487.9
-9431821.9
-9410637.5
-9429263.8
-9395606
-9523553.7
-9554178.2
-9509548.9
-9404314.6
-9478734.2
-9368161.8
-9468044.2
-9497737
-9376272
-9313424.2
-9343716.7
-9304268.3
-9613319.3
-9084454.7
-9511872.4
-9449225.4
-9329719.4
-9188052.5
-9385035.7
-9737234.7
-9639511.1
-9532223.5
-9559997.4
-9416370.4
-9445125.9
-9827468.6
-9823900.3
-9817646.7
-9653313.7
-9647572.9
-9752650.2
-9807523.1
-9591115.1
-9645379.6
-9580544.1
-9629744.8
-9628355.1
-9510991.4
-9543760.8
-9903094.4
-9829944.3
-9152774.3
-9614916.2
-9476382.7
-9151387.5
-9668021.7
-9437979
-9427195.3
-9434911.7
-9432648.3
-9645868.3
-9641295
-9643018.9
-9734513.5
-9519475
-9537712.4
-9733235.3
-9101830.4
-9175738.3
-9656666.6
-9570120.1
-9691261.6
-9531954.4
-9654398.2
-9607314.8
-9708923.6
-9479817.3
-9375325.5
-9422056.8
-9610121.4
-9643400.9
-9658324
-9483034.3
-9474205
-9746244.5
-9496739.5
-9722785.5
-9732417.5
-9744761.2
-9739367.8
-9709970.3
-9587041.3
-9565937.4
-9714882.3
-9381763.5
-9312664.4
-9791326.9
-9404371
-9802967
-9800987.3
-9492079.6
-9709014.4
-9706904.5
-9688280.8
-9316294.3
-9454633.5
-9640489.1
-9645456.1
-9561373.8
-9333646.1
-9353978.6
-9695742.1
-9683250.1
-9323488.2
-9710019.1
-9000210.3
-9755326.5
-9791771.3
-9468012.7
-9753890.1
-9496462.7
-9714794.1
-9634658.7
-9695215.4
-9583578.3
-8624779.5
-9710208.2
-9690487.5
-9522964.3
-9740941.9
-9587017.8
-9693952.5
-9457899.5
-9688067.8
-9707401.5
-9707818
-9162356.3
-9194853.6
-9107548.9
-9177645.3
-9143836.7
-9139473.1
-9022611.9
-9267937.7
-9689817.6
-9059820.6
-9743752
-9741728.3
-9701383.4
-9664021.8
-9715172
-9715250.4
-9281390.8
-9079653.6
-9695742.4
-9579458.6
-9183553.3
-9622592.8
-9279724.7
-9644586.4
-9483509.7
-9459627.4
-9390340
-9561285.8
-9121027.4
-9629510.9
-9449115.4
-9470312.3
-9537754.4
-9730989.1
-9692161.9
-9306516.4
-9522520.6
-9647728.4
-9599314.2
-9704383.6
-9629485.1
-9505229.8
-9669807.9
-9751654.5
-9744526
-9730625.1
-9675951.3
-9179330.1
-9533752
-9384158
-9349586.4
-9369625.4
-9464737.6
-9422873.4
-9367564.1
-9811953.8
-9803095.9
-9424232.6
-9788389.6
-9416105.9
-9747084
-9505666.6
-9761361.6
-9671651.6
-9700058.4
-9790326.4
-9840083.2
-9746617
-9776922.2
-9748391.2
-9749694.6
-9737857.5
-9781481.1
-9731724.1
-9751174.3
-9304512.1
-9412213.1
-9409178.8
-9431393.4
-9033418.9
-9593716.9
-9706452.3
-9350811.2
-9139165.7
-9739222.3
-9794966.8
-9479558
-9289443.8
-9195142.2
-9838978.9
-9928333.7
-9866632.5
-9660138.4
-9466514.8
-9443706.1
-9446161.2
-9419564.1
-9664051.5
-9183994.6
-9446149.2
-9732380.5
-9739108.3
-9788946.6
-9666882
-9500602.2
-9671004
-9802514.9
-9599506
-9641023.8
-9466467.2
-9556535.3
-9856633.7
-9805965.8
-9193941.3
-9648104.1
-9433439.5
-9163383.7
-9672735.2
-9569082.3
-9616623.6
-9713942.5
-9273837.7
-9231404.1
-9676819
-9533987.6
-9659247.7
-9484793
-9596452.9
-9535615.8
-9652527.8
-9465442.9
-9642713.3
-9710628.6
-9539168.3
-9528389.4
-9658552.6
-9242640.8
-9220937.6
-9793740
-9503849.6
-9786878.7
-9804662.7
-9513376.5
-9705439.9
-9718730.6
-9697328.4
-9293335.9
-9714159.2
-9629948.1
-9666455.7
-9596243.5
-9507609.3
-9677954.1
-9690928.2
-9699611
-9244028.6
-9677805.5
-9687702.5
-9742187.9
-9790289.5
-9386819.4
-9748415.5
-9454385.1
-9712507.1
-9624274.8
-8899121
-9597389.7
-8571422.2
-9644464.8
-9674331.1
-9654074.8
-9036180.9
-8896879.2
-9345467.8
-9090408.2
-9732224.6
-9677978.5
-9720317.5
-9720834.7
-9247201.4
-9152545.3
-9695476
-9568106.3
-9077862.3
-9612839.2
-9274119.9
-9655232.2
-9500768.1
-9438402.5
-9399979.1
-9517949.6
-9135861.8
-9623452.1
-9684987.1
-9615237.7
-9495383.7
-9706240.6
-9720624.5
-9548655.4
-9346906
-9406523.9
-9473505.5
-9815042.9
-9807236.9
-9328879.3
-9793501.8
-9286863.7
-9732904.2
-9452956.9
-9766422.4
-9726592.1
-9062209.2
-9518283.9
-9809419.5
-9783256.8
-9784061.3
-9723054.8
-9220986
-9119827.5
-9779299.8
-9839481
-9459577.9
-9368507
-9456323.9
-9485348.7
-9527809.3
-9201998.1
-9799344.7
-9941838.3
-9874998.5
-9623127.9
-9819464.8
-9828352.2
-9796786.3
-9432420.1
-9410917
-9429776.8
-9395653.5
-9524667.2
-9555458.6
-9510512.6
-9404825.4
-9479588.5
-9368371.3
-9468955.5
-9498964.6
-9376592.4
-9312813.7
-9343378.4
-9303920.4
-9613521
-9085265.6
-9512369.5
-9450648.1
-9330674.9
-9187946.7
-9385726.1
-9737580.6
-9639844
-9533051.8
-9561397.6
-9417305.5
-9446025.4
-9827709.5
-9823903.7
-9818097.9
-9653524.1
-9648072.5
-9752900.8
-9807761.7
-9592047.1
-9646445.3
-9581412.2
-9630535.7
-9628901.3
-9512043.9
-9544485.6
-9902941.4
-9830184.9
-9153997.1
-9615043
-9476580.4
-9152800.5
-9668024.3
-9439579.8
-9428797.2
-9436397.1
-9434122.3
-9646093
-9641565.8
-9643316.1
-9734470.5
-9519782.9
-9538024.9
-9733424.4
-9102005.3
-9176442.5
-9657095.6
-9570302.2
-9691573.4
-9532358.6
-9654585.5
-9607406.9
-9708987.8
-9480910.3
-9376700.9
-9423445.8
-9610399.8
-9643619.9
-9658556.3
-9484046.8
-9475283.1
-9746182.1
-9497810.3
-9722940.4
-9732607.4
-9744907.3
-9739553.2
-9710444.5
-9587193.3
-9566195.9
-9715135.8
-9382466.8
-9313673.7
-9791437.1
-9405096.4
-9803023.6
-9801105.4
-9492931.4
-9709138
-9706944.9
-9688427.9
-9317650.7
-9456015.9
-9640576.9
-9645722.7
-9561662.5
-9335703.5
-9355373.4
-9695961.8
-9683438
-9323668.1
-9710177.9
-8999954.6
-9755522.7
-9791948
-9468624.4
-9754156.1
-9497236
-9715052.5
-9635102.6
-9694715.9
-9583964
-8622304.2
-9710500.2
-9690729.7
-9523350.9
-9740500.9
-9587099
-9694283.1
-9457212.3
-9688460.9
-9707759.4
-9708186.8
-9161361
-9193731.3
-9107018.7
-9177157.4
-9143215.6
-9138723.8
-9022411.3
-9267487.7
-9689485
-9060466.7
-9743985.4
-9741994.6
-9701468.9
-9664103.4
-9715263.4
-9715554
-9280882.4
-9079399
-9696118
-9579810.2
-9184288.1
-9622752
-9280079.2
-9644593.2
-9483559.7
-9459697
-9390571.1
-9561136.9
-9120202.1
-9629360.2
-9449072.1
-9470262.9
-9538056.5
-9731322.4
-9692492.4
-9306154.9
-9523056.6
-9648080.1
-9599747.6
-9704547.3
-9629956.8
-9505665.8
-9670110.4
-9751847.8
-9744672.2
-9730800.9
-9675867.8
-9180180.4
-9534247.6
-9384341.1
-9349683.2
-9370123.5
-9465417.7
-9422794
-9367021
-9812094.7
-9803241.9
-9424567.6
-9788477.2
-9416571.1
-9747292.5
-9506008.3
-9761468.1
-9671765.8
-9700275.8
-9790538.3
-9840398.1
-9746771.3
-9777091.3
-9748797.9
-9750109
-9738122.8
-9781726.7
-9731903.5
-9751493.3
-9303786.4
-9412371.7
-9409766.2
-9431934.4
-9033257.7
-9593666.8
-9706580.5
-9350966.7
-9138964.3
-9739398.7
-9794994
-9479709.5
-9290059.4
-9194126.3
-9839116
-9928335.5
-9866506.3
-9660411
-9467299.8
-9444219.6
-9446948.7
-9419896.6
-9664528.5
-9184990.3
-9446474.6
-9732642.9
-9739155.9
-9789204.5
-9667092.4
-9500822.2
-9670872.4
-9802653.6
-9600398.1
-9641718.6
-9467512.5
-9556670.2
-9856780.9
-9805982.9
-9194874.6
-9648207.6
-9433947.3
-9163930.8
-9672915.8
-9569351.4
-9616823.9
-9714345.9
-9274670
-9232424.7
-9677322.7
-9534257.7
-9659488.3
-9485193.6
-9596642.9
-9535679.4
-9652675.8
-9466422.8
-9642899.1
-9711025.4
-9539596.5
-9528744.9
-9658782.7
-9243140.6
-9221678.5
-9793874
-9504782.9
-9786969
-9804840.9
-9514225.8
-9705557.5
-9718795.3
-9697455.1
-9294676.6
-9714234.1
-9630168.7
-9666698.6
-9596480.1
-9508665.2
-9678002.6
-9691299.7
-9699768.6
-9243838.4
-9677908.2
-9687686
-9742383
-9790460.5
-9387171.8
-9748577.4
-9454990
-9712812.7
-9624569.1
-8896417.2
-9597466.7
-8568959.7
-9644638.4
-9674636.5
-9654256.4
-9034222.5
-8895892.9
-9346313.2
-9089872.7
-9732475.7
-9678004.3
-9720407.8
-9721141.9
-9246633.9
-9152323.6
-9695502.5
-9568368.5
-9078513.7
-9612811.6
-9274512
-9655399.5
-9500965.5
-9438492.2
-9400196.3
-9517753.2
-9135272.2
-9623699.1
-9685128.3
-9615595.2
-9495582.8
-9706410.6
-9720784
-9549173.2
-9346930.4
-9406760.3
-9473769.7
-9815132.3
-9807411.2
-9329198.9
-9793431.8
-9286881.1
-9732672.2
-9453115.8
-9766582.5
-9726920.8
-9081219.8
-9524411.4
-9813325.6
-9784112.7
-9786850.3
-9726342.4
-9228103.1
-9130618.7
-9780804.7
-9839533.8
-9465597.2
-9373470.5
-9461406.3
-9489878.8
-9532995.7
-9214110.7
-9801832.6
-9942160.7
-9874589.3
-9625418.8
-9821130.4
-9829310.5
-9799294.7
-9446868.7
-9427552.7
-9444912.2
-9413885.5
-9535783.2
-9563856.1
-9521956.2
-9417782.4
-9489600.4
-9382959.2
-9479475.4
-9508562.9
-9390617.9
-9334435.9
-9363155.7
-9321813.8
-9615053.2
-9091128
-9514470.7
-9455811.8
-9335066.4
-9199009.7
-9395995.2
-9740723.9
-9644398.7
-9535758.2
-9564993
-9423064.2
-9452263.8
-9829616.2
-9824322.5
-9820753.5
-9655951.6
-9651514.6
-9757339.7
-9808279
-9595872.8
-9649872.9
-9584087.3
-9634667.4
-9631469.3
-9519244.2
-9549620.2
-9902696.4
-9831355
-9166455.4
-9616467
-9483318.1
-9159552.5
-9668557.1
-9444358.1
-9433833.7
-9440673.9
-9438355.5
-9648067.6
-9643958.4
-9644937.3
-9734799.4
-9523226.2
-9543416.4
-9734906.8
-9106875.5
-9185384.3
-9658562.1
-9572701.8
-9693442.2
-9533557.3
-9659028.6
-9610327.2
-9710452.4
-9484732.4
-9381513.8
-9429349.3
-9612243.8
-9646012.1
-9661486.4
-9488639.3
-9479841.3
-9746834.5
-9501462.2
-9724608.9
-9734488.1
-9746132.3
-9741264.8
-9711610.2
-9590213.9
-9572593.7
-9717085.2
-9385152.2
-9320419.9
-9793063.5
-9412031.5
-9803989.5
-9802624.5
-9496455
-9710508.8
-9709023.9
-9690354
-9323460.7
-9459640.4
-9644093
-9647820.9
-9565586.7
-9341309.7
-9359272.6
-9699150.1
-9686830.5
-9331063.5
-9712146.6
-9011081.5
-9757149.9
-9792811.6
-9473822.8
-9755436.4
-9501148.2
-9717211.4
-9638341.5
-9695039.2
-9587336.9
-8648646.7
-9712653
-9693269.2
-9530264.3
-9740441.4
-9589632.9
-9699550.9
-9459411.8
-9692624.8
-9712818.3
-9712158.8
-9179352.4
-9208162.1
-9122066.4
-9190035.5
-9161488.5
-9157862.3
-9039124.3
-9282668.3
-9690179.1
-9071217.8
-9746832.3
-9744835.6
-9702735.8
-9666833.8
-9716894.2
-9721052.3
-9286453.1
-9085542.8
-9697497.7
-9581805
-9190372
-9624295.6
-9286694.8
-9646689.8
-9485687.4
-9460856.2
-9393618.5
-9561961
-9138670.8
-9630439.2
-9451355.1
-9472090.2
-9541172
-9734441
-9695082.8
-9321200.6
-9524255.3
-9652786.5
-9605612.8
-9708204
-9635750.4
-9512027.7
-9672627.1
-9753404.4
-9745801.9
-9732404.7
-9677426.5
-9188239.5
-9536776.5
-9393327.8
-9361785.2
-9377135.3
-9470505.3
-9433348.4
-9383311.6
-9813064.1
-9804218.3
-9428183
-9788929.9
-9421452.4
-9747939.5
-9507400.9
-9762832.1
-9674224.4
-9704579.5
-9793394
-9842378.9
-9747362.3
-9779425.2
-9754456.1
-9755996.7
-9740231.6
-9785079.4
-9733078.5
-9754490.4
-9321118.4
-9423146.2
-9415441.6
-9440322.9
-9046741.2
-9599353
-9708096.7
-9357572.5
-9152190.3
-9740428.7
-9795281.9
-9486523.3
-9295772.9
-9214213.3
-9840775.7
-9928436.2
-9866397.1
-9664142.8
-9480817.3
-9459734.4
-9460613.8
-9436424.9
-9665292.9
-9191170.6
-9451143.4
-9734388
-9740232.8
-9791973.7
-9671774.7
-9510938.1
-9673598.3
-9803757.7
-9603123.7
-9646482.1
-9476437.5
-9562295.3
-9857937.9
-9806764.9
-9204489.5
-9650429.3
-9446011.3
-9174244.2
-9673716.8
-9573669.9
-9619892.9
-9715153.7
-9281657.5
-9238276.1
-9678860
-9539445.8
-9660104.1
-9492414.7
-9600769.5
-9539033.1
-9654623
-9469494.8
-9645523.8
-9712209.9
-9544383.1
-9534519.4
-9660078.5
-9251019.3
-9227785.5
-9794841.2
-9508906.7
-9787628.1
-9806014.4
-9517642.7
-9707869.7
-9721012.6
-9699422.7
-9301461.9
-9715491.7
-9634796
-9668945.4
-9600924.6
-9512196.1
-9680177.4
-9695349.6
-9702946.4
-9255268.1
-9681421.6
-9690230.2
-9745007.6
-9791479
-9395454.1
-9750304.6
-9459434.8
-9715337.1
-9627735.8
-8929432
-9600999.3
-8597250
-9648565.4
-9677655.1
-9657988.6
-9058411.9
-8911470.5
-9362783.2
-9110420.8
-9735807.2
-9681993.2
-9722294.6
-9726685
-9255645.6
-9159558.6
-9696819.6
-9570217.6
-9085328.5
-9614070.2
-9280813
-9659253.6
-9503449.4
-9440461.6
-9404195.9
-9518694.9
-9152431.3
-9627578
-9685807
-9617591.9
-9501717.1
-9708381.5
-9722310.3
-9553050
-9352452.9
-9416025.9
-9482666.1
-9816532
-9809100.3
-9335165.2
-9793921
-9296345.7
-9733081.2
-9454605.4
-9768069.7
-9732699.5
-9127003.5
-9539183.2
-9821975.7
-9786782.9
-9793872.9
-9734474.2
-9244975.4
-9157382.6
-9784598.4
-9839936.8
-9480398.8
-9384609.8
-9473389.6
-9499805
-9545276.2
-9244793
-9807978.6
-9942823.6
-9874154.6
-9631482.5
-9825309.7
-9831757.4
-9805363.5
-9483193.1
-9468182.9
-9482436.3
-9457516.8
-9563449.3
-9584509.2
-9550617.3
-9449917.1
-9514395.1
-9418884.8
-9506103.8
-9532689.4
-9425192.8
-9385757.1
-9410541.6
-9364697.8
-9618529.7
-9104193.9
-9518749.3
-9466907.1
-9343732.4
-9226236.9
-9421468.2
-9748858.9
-9655934.1
-9540475.3
-9571738.7
-9436315.4
-9466798.6
-9834056.5
-9825318
-9826491.7
-9662278.7
-9660347.7
-9767908.8
-9808907.7
-9604101.7
-9656970.7
-9589522.1
-9644146.2
-9638063.7
-9537582.6
-9562827.5
-9902461.4
-9833973.2
-9197166.8
-9619768.7
-9500179.5
-9174135.8
-9669821.9
-9455030.4
-9445261.7
-9450004.9
-9447680.3
-9653070.7
-9650162.1
-9649114.8
-9736566
-9532054.9
-9557488.4
-9738932.7
-9118047.6
-9206868.5
-9662014.3
-9578913.7
-9698347.3
-9536091.4
-9670562.6
-9618023.7
-9714447.7
-9494044.4
-9392820.4
-9443834.2
-9617049
-9652138.7
-9669211.7
-9499539.5
-9490482.4
-9749074.5
-9509646.1
-9728768
-9739158.1
-9749250.7
-9745626.5
-9714189.8
-9597978.1
-9588276.1
-9722146.3
-9390544.1
-9336177.1
-9797191.1
-9429260.3
-9806717.1
-9806643.1
-9504086.7
-9714555.9
-9714504
-9695661.5
-9337265.9
-9467449.3
-9653039.5
-9653292.6
-9575609.8
-9353972
-9367976.6
-9706855.4
-9694969.2
-9350037.7
-9717343.7
-9038276.3
-9761403.5
-9795087
-9486810.1
-9758747.9
-9509721.8
-9722601.4
-9646071.1
-9697975
-9595866.3
-8711876.6
-9718132.2
-9699563.1
-9546271.9
-9742109.5
-9595882.3
-9712249.4
-9468186.4
-9702457.4
-9725585.2
-9721947.7
-9222844
-9244714.4
-9158716.5
-9221305.7
-9205800.9
-9204300.7
-9080247.3
-9320240.7
-9693279.8
-9098175.2
-9753997.4
-9752071.9
-9706154.5
-9674165.1
-9721013.5
-9734248.6
-9300182.8
-9100112.2
-9700537.6
-9586541.2
-9204765
-9627762.9
-9302218.1
-9651785.5
-9490742.4
-9464105.6
-9400868.3
-9563996.6
-9184186.3
-9633879.5
-9457758.8
-9477603.8
-9548999.7
-9742532.6
-9702003.6
-9358062.1
-9526657.2
-9664770.3
-9620436.5
-9717576.1
-9649091.5
-9527009.8
-9678602.7
-9757528.7
-9748751.2
-9736449.7
-9681770.3
-9207338.3
-9542802.4
-9416498.2
-9391194.1
-9393617.3
-9482736.4
-9460004.8
-9422657.8
-9815377.8
-9806899.8
-9437038.7
-9789772.8
-9433639.3
-9749252
-9510086.6
-9766185.7
-9680025.8
-9714942.3
-9800887.3
-9847288.2
-9748608.2
-9785106.1
-9767532.9
-9769612.8
-9745772.1
-9793250.4
-9736098.7
-9762399.5
-9363284.6
-9450219
-9428923.8
-9460987.2
-9079384.7
-9613105.6
-9712131.9
-9373338.1
-9185179.1
-9743411.7
-9796374.1
-9503517.9
-9309054.1
-9263025.1
-9844854.5
-9928883.7
-9866274.9
-9674056
-9514476.5
-9497417.8
-9495151.2
-9476565.1
-9667312.4
-9205217.9
-9462186.9
-9738719.8
-9742964.7
-9798923.1
-9683354.6
-9535690.6
-9679958.7
-9806358.7
-9608338.7
-9659361.2
-9499053.4
-9576152.6
-9860775.5
-9808684.4
-9227795.5
-9655605.2
-9475507.1
-9199491.2
-9675698.1
-9585222.5
-9628209.3
-9716768.2
-9298099.7
-9251516.4
-9682514.1
-9552905.7
-9661300.2
-9510462.2
-9611125.3
-9547566
-9659597.2
-9476742.5
-9652348.8
-9715098.6
-9556901.7
-9548545.7
-9662998
-9269948.9
-9241874.1
-9797472.7
-9518962.6
-9789639.6
-9809063.6
-9525001.8
-9714188.4
-9726785.7
-9705084.9
-9317742.6
-9718635.3
-9646155.3
-9674765.6
-9612169.2
-9520720.6
-9685442.2
-9704834.5
-9710718.7
-9283918.1
-9690082.3
-9696476.3
-9751556.1
-9794178.1
-9416061
-9754789.6
-9469510.1
-9721691.1
-9635708.7
-9004005.5
-9610285.3
-8664666.6
-9658460.1
-9684964.9
-9667384.8
-9114544.7
-8949315
-9399364.1
-9161786.9
-9744442.5
-9692117.4
-9727016.1
-9739974.1
-9277722.9
-9177007.2
-9700196.5
-9574517.3
-9101235.8
-9616972.8
-9295634.5
-9668677.8
-9509524.5
-9445954
-9414009.8
-9520974.2
-9194674
-9637426.1
-9687241.2
-9622431.9
-9516198.4
-9713134.3
-9726126.6
-9562941
-9366100.5
-9439019.1
-9505116.4
-9820075.4
-9813401
-9349665.9
-9795145.3
-9319635.6
-9734271.2
-9457617.9
-9771926.3
-9746448.2
-9202979.4
-9565383.1
-9835816.5
-9793148.2
-9806786.3
-9749459.8
-9275445.4
-9205923
-9792581.1
-9841528.3
-9507547.2
-9405666.4
-9495267.3
-9518362.2
-9568124.8
-9299174.9
-9819796.2
-9944185.5
-9874622.2
-9644159.3
-9833387.8
-9836851.9
-9816441.3
-9543625.1
-9533373.8
-9543944.1
-9526033.1
-9610513.4
-9621008.2
-9599348.4
-9504365.6
-9557747.9
-9478643.2
-9552906.3
-9575672.9
-9483313.8
-9465142.8
-9484841.8
-9433687.6
-9625066
-9128300.5
-9527074.5
-9487889.6
-9359593.3
-9274393.8
-9466779.8
-9764458.1
-9677308.8
-9548962.5
-9584416.4
-9460824.6
-9493602.6
-9841970.7
-9827335.3
-9836413.6
-9674785.5
-9677732.9
-9785710.9
-9810053
-9619510.1
-9670316.6
-9600062.9
-9661691.4
-9651944.8
-9572350.9
-9588564.6
-9903105.8
-9839071.8
-9253334.4
-9626194.2
-9530632.4
-9201013.4
-9672405.9
-9476059
-9467844.8
-9468342.7
-9466123.3
-9663242.6
-9662787.9
-9658179.9
-9741904.8
-9549556.6
-9584193
-9747620.6
-9138681.1
-9246181.4
-9669389.5
-9591505.5
-9708789.5
-9540898.8
-9691900.4
-9633075.3
-9722770.4
-9513356.3
-9415663.3
-9472613.1
-9627283.9
-9664302.4
-9684526.6
-9520880.5
-9511271.8
-9754553.3
-9525930.7
-9736975.1
-9748244.1
-9755745.7
-9754361.2
-9719702.5
-9613163.9
-9615958.5
-9732520.5
-9400541.5
-9365721.2
-9805155.8
-9461893.1
-9812588
-9814686.6
-9518866.4
-9723681.8
-9725191.3
-9706766
-9364528.3
-9482592.5
-9669673.9
-9664604.3
-9594903.6
-9379511.9
-9385514
-9720744.6
-9709419.1
-9385435.2
-9727663.5
-9086808.6
-9770066.3
-9800211.6
-9511714.2
-9765820.8
-9525964.6
-9733148.5
-9660527.2
-9706333.1
-9612298.2
-8815822.7
-9728947.6
-9711458.4
-9573460.2
-9747722.6
-9607693
-9734101.1
-9487854.5
-9719747.7
-9748056.4
-9739610.6
-9294002
-9307112.9
-9221139
-9274667.7
-9279363.1
-9280974
-9151499.6
-9383374.8
-9700898.8
-9148114.1
-9767368.1
-9765743.5
-9713487.8
-9688504.6
-9729082.6
-9756507.7
-9325141.3
-9126599.3
-9706671.6
-9596183.3
-9231953.7
-9634444.3
-9330570.8
-9661264.1
-9500235.5
-9471470.1
-9414640.2
-9568017.2
-9260293
-9641522
-9471176.6
-9489827.2
-9564403.1
-9758066.1
-9716160.4
-9419324.1
-9530932.4
-9686861.2
-9647527.8
-9734747.9
-9671779.7
-9553219.1
-9689824.5
-9766116.4
-9755045.7
-9744560.3
-9690833.6
-9242754.2
-9555111.8
-9458688
-9441196.8
-9423390.5
-9506039.8
-9505909.6
-9485691.9
-9820067.2
-9812785.8
-9454533.1
-9791524.9
-9457137.8
-9752123.8
-9515088.2
-9772780.2
-9690377.3
-9732932.1
-9814645.1
-9856379.6
-9751331.8
-9795528.2
-9788762.1
-9791582.5
-9756801.4
-9807579.7
-9742593.5
-9777438.7
-9431461.1
-9497137.7
-9454169.3
-9497928.2
-9135830.3
-9636683.6
-9720563.9
-9401706
-9243435.7
-9750401.4
-9800029.5
-9534051.5
-9333832.2
-9342134.3
-9852549.7
-9930236.2
-9867125.4
-9693382.3
-9570559
-9558113.4
-9553224.1
-9540768.1
-9670670.1
-9231475
-9482776
-9747377.8
-9748526.2
-9811654.2
-9703911.6
-9577706.9
-9691308.4
-9811550.8
-9618218.7
-9684565.7
-9540554.2
-9600837.1
-9866307.9
-9813102.8
-9270874
-9665040.6
-9526018.4
-9245652.7
-9679966.7
-9607827.7
-9644936.3
-9720145.1
-9328690.9
-9276327.6
-9690425.4
-9578466.2
-9663420.8
-9543118.4
-9630287.2
-9563777.9
-9669525.1
-9491874.8
-9665907.6
-9721573.4
-9581287.2
-9573868.5
-9668820.3
-9304434.3
-9268159.2
-9803198.2
-9539033.7
-9794533.8
-9815435.1
-9539237.5
-9726928.7
-9737897.5
-9717178
-9349312.1
-9725049.9
-9666527.2
-9686543.7
-9633128.7
-9538494.9
-9695235.9
-9721425.2
-9724706.8
-9334271.4
-9705615
-9707756.6
-9763756.2
-9800057
-9453265.4
-9763776.1
-9488406.4
-9734036.4
-9651005.2
-9116612.6
-9628018.3
-8774746.3
-9676657.4
-9698524
-9684730.6
-9202307.7
-9013978.5
-9457859.1
-9248579
-9760629
-9710259.1
-9736031.4
-9762376.3
-9316224.5
-9208535.4
-9707053.7
-9583077.8
-9130654.1
-9622550.3
-9323007.2
-9685551.8
-9521321.3
-9457907.6
-9432604.9
-9525297.3
-9265924.5
-9656009.8
-9690072.9
-9632213.2
-9541169
-9722095.6
-9733743.2
-9582516.7
-9391813.3
-9479429.7
-9544541.6
-9826907.8
-9821694.9
-9376543
-9797671.7
-9360941.3
-9736900.3
-9463109.3
-9779762.1
-9769296
-9304210.3
-9602835.7
-9853858.3
-9804705.1
-9825440.4
-9771421.4
-9321678.9
-9278009.9
-9805839.2
-9845507
-9548419.4
-9439596.1
-9528342.3
-9547652.3
-9602685.1
-9376027.8
-9836878.4
-9946583.3
-9877254.6
-9665607.4
-9845862.7
-9845491.2
-9832592.5
-9618850
-9612817.9
-9619930.7
-9608425.8
-9670432.5
-9670233.7
-9661336
-9575322.5
-9615954.7
-9555465.6
-9615249.4
-9633490.8
-9558691.8
-9559827.4
-9574322.9
-9520359.7
-9636282.1
-9167200.3
-9541769.6
-9521369.2
-9385543.2
-9343404.2
-9529942.7
-9787446.3
-9708568.4
-9563359.9
-9605340.2
-9498582
-9533917.7
-9853617
-9831039.1
-9850372
-9694939.6
-9704661.2
-9809489.4
-9812414.5
-9643610.9
-9691239.9
-9618008
-9688062.2
-9675345.7
-9622258.7
-9627707.4
-9905517.6
-9847297.1
-9335584.6
-9637165
-9574864.3
-9244253.3
-9677201.1
-9511076.6
-9505142.1
-9499401.9
-9497490.8
-9680492.4
-9683703.2
-9674431.2
-9752971.9
-9578087.5
-9624078.2
-9762540.3
-9171937.9
-9305806.1
-9682896.8
-9612730.8
-9726613.3
-9549339.3
-9722796.2
-9657037.5
-9736899.5
-9546149.7
-9454109.3
-9518222.1
-9645329
-9684153.9
-9708622.4
-9555082.8
-9544781.9
-9764835.1
-9553231.9
-9750458.6
-9762862.9
-9766968.9
-9768660.3
-9730100.2
-9637504.7
-9655096.4
-9749591
-9417736.8
-9411815.8
-9817596
-9511150.3
-9822639.6
-9827457.3
-9543476.1
-9739711.3
-9742155
-9725254.1
-9409281
-9508747.2
-9694791.3
-9683744.8
-9625051.6
-9422856
-9416492.5
-9741361.4
-9730607.9
-9438538.2
-9744275.9
-9158219.7
-9784196.2
-9809458.5
-9550246
-9778003.3
-9552097
-9750042.6
-9683017.7
-9722212.3
-9638297.1
-8953842.5
-9746328.6
-9730051.5
-9611629.3
-9759200.3
-9626725.5
-9763897.1
-9520297.4
-9744520.2
-9778545.7
-9764941.3
-9386468.2
-9391276.8
-9306836.7
-9348187.1
-9376211.4
-9381024.6
-9250673.5
-9466699.6
-9714700.6
-9223298.2
-9787249.8
-9786140
-9726271.2
-9710847.2
-9742236.7
-9786087.6
-9362925.5
-9167700.8
-9717484.3
-9612994.4
-9275664.3
-9645770.7
-9373813.9
-9676168.5
-9515764.1
-9485510
-9437246.2
-9575054.5
-9360657.7
-9655065.6
-9494311.4
-9511735.3
-9589633.1
-9781097.4
-9738714.9
-9499242.5
-9537971.7
-9718753.6
-9686104.3
-9759624.5
-9703422.6
-9591156.9
-9707618.8
-9780400.9
-9766118.3
-9758027.1
-9706040.8
-9297353.4
-9576299.2
-9518930.8
-9508646
-9467682.1
-9542249
-9567575.8
-9564443
-9827965.1
-9822909.5
-9483521.9
-9794918.1
-9494340.1
-9757784
-9523940.3
-9783616.8
-9706006
-9758169.1
-9834044.4
-9869555.7
-9756680.2
-9811069.2
-9816103.8
-9819599.9
-9774158.5
-9827478
-9753970.2
-9799368.5
-9517460.3
-9560510.4
-9493039.2
-9550327.5
-9216032.1
-9669317.4
-9734962.2
-9443949
-9326010.8
-9763245.4
-9807963.5
-9578367.2
-9373076.9
-9442319.6
-9864069.4
-9933067.4
-9869953.9
-9722403.4
-9640485.2
-9632328.3
-9626006.8
-9618922.4
-9676986.2
-9273726.8
-9514680.2
-9761703.9
-9758067.5
-9829939.4
-9733038.6
-9633396
-9708230.9
-9820237.3
-9634798.4
-9720866.6
-9598526
-9636407.7
-9875020.9
-9821112.6
-9336075.1
-9679701.1
-9592607.9
-9314265
-9688160.2
-9642552.5
-9671630.6
-9726800.4
-9376339.4
-9316352
-9704880.8
-9616963.4
-9667043
-9590150.9
-9659181.2
-9589369.8
-9686075.6
-9518666.2
-9687778.3
-9733722.2
-9618738.3
-9611145.7
-9679099.3
-9356736.2
-9310038.7
-9813127.1
-9572039.9
-9803735.5
-9826047.4
-9562807.7
-9747172.1
-9755267.8
-9737166.6
-9399815.8
-9736154.8
-9696128.5
-9705970.5
-9664556
-9568975.1
-9710631.3
-9745262.9
-9745335.5
-9405100.8
-9728354.6
-9724690.4
-9782102.2
-9810331.5
-9507064.2
-9778279.1
-9518264.4
-9753404.8
-9675082
-9252694.7
-9655343.8
-8920088.6
-9703639.8
-9719353.4
-9710600.5
-9312071.3
-9104222.1
-9533581.6
-9362005.4
-9784160.7
-9736265.4
-9750320
-9792030.7
-9371041.6
-9256205.7
-9718807.9
-9597954.2
-9177345.1
-9632030
-9365319.4
-9710247.9
-9540955.1
-9479386.3
-9462338.1
-9532590.5
-9361091.4
-9684189.9
-9695315.4
-9649004.5
-9576918
-9736388
-9746465.7
-9613615.2
-9431700.6
-9535676.2
-9598553.6
-9837619.1
-9834456.5
-9418108.3
-9802200.4
-9420336.1
-9741856.4
-9472572.6
-9792629.3
-9799140.2
-9416880.7
-9647925.8
-9874032.7
-9820419.4
-9847192.5
-9797794.3
-9381376.3
-9366655
-9823107.6
-9852329.7
-9599002.5
-9485560.6
-9570596.7
-9586193.8
-9645631.6
-9465524.5
-9856934.4
-9949977.9
-9882264.3
-9694504.7
-9861314.4
-9857150.8
-9851798.4
-9695361.7
-9692941.5
-9697049
-9691072.9
-9732347.4
-9723771.5
-9725369.4
-9650980.5
-9679349.1
-9636737.6
-9682096
-9695713.6
-9638689.9
-9654429.4
-9664240
-9610992.4
-9652719.2
-9221806.8
-9563939.3
-9565382.4
-9422180
-9426031.6
-9601417.9
-9814255
-9745388.8
-9584560.3
-9634090.4
-9546871.3
-9584008.9
-9867921.6
-9836828.2
-9866870.2
-9721433.3
-9737728.7
-9836204.6
-9816653
-9674837.7
-9718286.9
-9643535.8
-9720665.6
-9706045
-9678363.7
-9674531.5
-9909800.2
-9858254.3
-9432229.9
-9653478.2
-9627715.3
-9303667.4
-9685083.9
-9557829.3
-9554328.1
-9542305.8
-9540794.4
-9704345.2
-9711466.4
-9697623.7
-9769445.1
-9616058.7
-9671725.5
-9782523
-9218765
-9381324.5
-9702885.4
-9642114.9
-9750425.8
-9562800.4
-9758890.1
-9688290
-9756341.1
-9589905.5
-9505930.4
-9574880.8
-9670923.8
-9710523.7
-9738829.2
-9599386.8
-9588653.7
-9779806.4
-9590542.8
-9768721.5
-9782134.2
-9782698
-9787583.6
-9745854.2
-9669536.6
-9700605.1
-9771940.4
-9443879.2
-9471404.6
-9833557.5
-9571309.8
-9836271.2
-9843704.2
-9577615.8
-9761451.6
-9764250.6
-9749669.7
-9468638.2
-9546392
-9726051.3
-9709700.9
-9663352.4
-9480934.8
-9461571
-9766896.3
-9756780.4
-9503978.4
-9766057.3
-9247113
-9802714.9
-9822521.9
-9598701.7
-9794697.1
-9587218
-9771997.5
-9711977.4
-9744450.7
-9671984.6
-9108718.3
-9768926.5
-9754048.6
-9656948.4
-9776060.3
-9652772.8
-9797417.4
-9563579.9
-9774016
-9812290.8
-9794536
-9487368.8
-9485677.2
-9405459.4
-9433444.7
-9482221.1
-9489356.2
-9364726.1
-9557407.1
-9734278.7
-9316594.7
-9811214.4
-9810622.1
-9744298.5
-9739174.2
-9760117.3
-9818721.3
-9411534.9
-9222778.5
-9733427.3
-9637344.1
-9335229.9
-9662348.3
-9429540.9
-9696289.3
-9538019.3
-9507788.6
-9469347
-9585934.5
-9470333.2
-9674719
-9527379.6
-9543670.5
-9623696.9
-9808163.8
-9766742.3
-9585725.5
-9548751.3
-9755759.3
-9730164.3
-9789033.8
-9740343.3
-9637221.8
-9731163.9
-9799169.6
-9781752.6
-9776265.6
-9726836.7
-9367666.5
-9606289.3
-9588485.4
-9584177.2
-9522805.8
-9588428.2
-9635896.6
-9646734.1
-9838922.2
-9836618.9
-9523510.9
-9800573.3
-9542782.4
-9767016.6
-9538085.7
-9798396.8
-9726345.2
-9787699
-9856324.6
-9885134.6
-9765442.4
-9830227.5
-9845762.3
-9849734.6
-9796068.4
-9850303.4
-9770054.2
-9824942.9
-9607871.9
-9630735.5
-9542652.3
-9611355.8
-9312384.5
-9707615.6
-9754855.9
-9497024.1
-9422474.5
-9781227.3
-9819954.2
-9631172.9
-9425617.1
-9547790.3
-9878170.9
-9937240.5
-9875233.1
-9756873.9
-9711748.4
-9707397.7
-9700221.9
-9697753
-9686965.8
-9331618.6
-9556208.3
-9780889.1
-9771747.5
-9851242
-9767004.2
-9693978.2
-9729709.6
-9832182.7
-9658139.3
-9761305.8
-9662388.7
-9679055.1
-9886145.9
-9832602.9
-9417000.5
-9699453
-9663825.2
-9398535.8
-9701339.8
-9684958.4
-9705530.4
-9737896.7
-9438247.9
-9371215.1
-9725663.5
-9663566
-9672917
-9645152.8
-9695091.8
-9623213.5
-9708869.3
-9556768.5
-9716285.2
-9751471.8
-9664421.7
-9656368.9
-9694594.4
-9423272.8
-9366641.5
-9826782.4
-9614965.7
-9816968
-9840154.8
-9595394.7
-9772757.4
-9777535
-9762899.9
-9465137.6
-9752102.9
-9731639.1
-9731704.5
-9702921.1
-9609834.3
-9731179
-9773824.6
-9770784.9
-9487645.7
-9756216.6
-9746319.3
-9804683.4
-9824460.5
-9570923.7
-9797243.1
-9557785.4
-9777799
-9706046.2
-9393353.3
-9689889.9
-9082478
-9736485.4
-9745809.5
-9742223.9
-9428815.2
-9211124.5
-9615517
-9482701.6
-9811618.8
-9767192.7
-9769239.3
-9824518.6
-9437068.1
-9317672.4
-9735632.1
-9619937.6
-9241112.4
-9646128.6
-9420522.8
-9740448.4
-9568850.3
-9511132.7
-9502675.6
-9543574.8
-9466414.4
-9718893.6
-9703962.8
-9672866.6
-9620495.7
-9755562.4
-9763977.3
-9653277.8
-9483363.1
-9600354.4
-9659269.1
-9851427.7
-9850450.8
-9472135
-9809142
-9491610.2
-9749821
-9487352.8
-9809674
-9831524.8
-9524527.7
-9694033.7
-9894026.1
-9837236.5
-9868836.5
-9824517.6
-9446745.4
-9457667.2
-9841359.5
-9860838.5
-9651172
-9537068.3
-9616129.2
-9628422.7
-9690093.8
-9553452.7
-9876975.6
-9953942.7
-9888249.5
-9725820.2
-9877304.4
-9869907
-9871236
-9764378.9
-9764853.3
-9766533.8
-9764981.8
-9788881.7
-9774156.8
-9783768.4
-9721025.1
-9738863.4
-9711649.6
-9744153.3
-9753588.8
-9712511.2
-9738573.2
-9744574.4
-9693871.3
-9673051.8
-9286793.6
-9591666.4
-9613067.2
-9465650.9
-9509849
-9670083.7
-9840697.3
-9781874.7
-9610574.5
-9666613.2
-9598564.5
-9636195
-9882880.6
-9844368.7
-9883815.1
-9750097.6
-9771258.3
-9862534
-9822762.7
-9708583.5
-9747441.3
-9673134.7
-9754506.8
-9738160.1
-9731376.7
-9720693.2
-9914948.1
-9870495.3
-9526403.9
-9673852.9
-9680913.2
-9371745.7
-9696082
-9607402.8
-9606029.4
-9589537.2
-9588270.9
-9731072.6
-9741340.8
-9723892.2
-9787998.5
-9657291.7
-9719164.9
-9803954.1
-9275172.9
-9461053.4
-9726237.8
-9675247.1
-9775829.9
-9581366.7
-9794618
-9721924.4
-9778099.6
-9636099.2
-9561695.6
-9631793
-9699959.9
-9739192.7
-9770095.5
-9646228
-9635511.9
-9797087.4
-9631796.7
-9789071.9
-9803052.7
-9800518.5
-9808054.2
-9764363.9
-9704247.2
-9745579
-9795742
-9477480.8
-9534994.8
-9850709.2
-9632037.3
-9851276.7
-9860854.1
-9616474.1
-9784939.3
-9788153.1
-9775814.9
-9531999.7
-9589363.5
-9758689.1
-9738055.3
-9703490.8
-9541877.3
-9513589.1
-9793638.1
-9784267.5
-9571379.5
-9789660.3
-9341287
-9822648.1
-9837196.1
-9649012.8
-9813174.2
-9626423.8
-9795450.2
-9742915.4
-9768930
-9707984.8
-9259284.8
-9793063.3
-9779768.9
-9702979.7
-9795181
-9682420.2
-9830056.3
-9613204.3
-9803857.8
-9844893
-9823911.7
-9582970.6
-9576725.7
-9502672.2
-9518491.2
-9582118.6
-9590398.2