/*--------------------------------*- C++ -*----------------------------------*\
  =========                 |
  \\      /  F ield         | OpenFOAM: The Open Source CFD Toolbox
   \\    /   O peration     | Website:  https://openfoam.org
    \\  /    A nd           | Version:  8
     \\/     M anipulation  |
\*---------------------------------------------------------------------------*/
FoamFile
{
    version     2.0;
    format      ascii;
    class       volScalarField;
    location    "7200/buildings";
    object      Ts;
}
// * * * * * * * * * * * * * * * * * * * * * * * * * * * * * * * * * * * * * //

dimensions      [0 0 0 1 0 0 0];

internalField   nonuniform List<scalar> 
3640
(
316.95859
310.88856
305.55764
305.27635
305.7165
307.0547
315.33834
315.81086
305.60171
304.06593
311.35547
312.61918
311.93775
311.27768
310.37841
314.89199
305.38247
301.91136
302.77041
308.34627
304.92615
304.67566
305.51898
311.35387
311.92668
311.52143
312.30391
309.94053
309.59311
310.15828
312.00934
310.81261
312.63928
310.80228
310.23671
312.42688
313.55941
313.06821
313.73197
309.38728
316.71387
310.78704
311.43759
313.87724
315.47618
312.23813
306.45372
308.33394
310.69572
309.98296
312.27242
311.82067
304.94716
304.98486
305.32502
308.25492
308.01221
306.69238
305.34812
309.56517
308.6069
309.27437
308.81993
307.79265
309.57048
309.31889
302.61405
304.95225
314.46154
309.14685
311.23026
315.30889
308.27088
309.79678
310.15392
310.08449
309.91648
308.21821
308.18944
307.9295
305.89166
310.2316
309.87935
306.41769
317.16038
315.21402
307.44294
309.55695
307.01776
309.89794
308.19094
309.11385
307.25032
309.4528
311.1551
310.52389
308.59319
308.36953
307.98827
310.58047
310.73562
306.37341
310.29135
307.01081
306.77447
306.41876
306.5494
306.01963
309.38019
309.83455
306.91881
312.28003
313.19981
305.75408
311.68712
305.30064
305.40568
310.855
306.79958
307.45843
307.38169
312.11854
308.43305
308.69578
308.05083
309.6834
309.71558
310.57693
307.75651
308.08476
313.36317
307.28237
318.23507
306.30011
305.36226
311.01971
306.21007
311.0473
307.04043
308.64077
307.0807
309.38329
322.749
307.13762
307.69978
310.91368
306.26427
309.59337
307.63963
312.48912
307.82927
307.27305
307.31437
315.97835
315.40329
316.63322
315.98687
315.84133
315.82208
317.00918
314.1021
307.68792
316.66746
306.56865
306.52513
307.45286
308.17367
307.29744
307.3007
315.18717
317.81092
307.28897
309.32644
315.05899
309.13382
314.5932
308.93561
311.76858
311.4541
312.87687
310.59088
316.06666
308.97742
311.90237
311.21966
310.03345
306.59305
307.08013
313.79388
309.99099
308.14892
308.90556
307.404
308.92439
310.96969
308.0548
306.15843
306.35264
306.72761
308.05625
315.36328
310.07154
312.22659
313.2631
313.09433
311.42008
312.15235
313.03454
305.30128
305.3101
311.87997
305.80827
311.89837
306.44584
310.81519
306.38239
308.48488
307.68662
305.706
304.59799
306.56139
306.06746
306.73214
306.70279
306.64894
305.96222
306.83059
306.31889
313.85635
312.1565
312.38034
311.91594
317.61003
309.89299
307.15437
313.62378
315.69821
306.01031
304.63571
311.19824
313.9802
315.16501
304.61983
302.20617
303.3451
307.83416
310.85589
311.43124
311.06618
311.83434
308.24106
314.99351
312.02982
306.60233
306.79936
305.67505
308.16965
310.77513
308.61436
305.48614
309.35836
307.58644
310.32647
310.18835
304.17294
305.16053
314.3972
308.84863
311.42317
315.29703
307.57036
309.32028
308.59117
306.22413
313.82437
314.31486
306.62603
310.01745
308.00091
310.79066
309.36038
310.53822
308.32284
309.69856
308.34572
306.10573
309.63265
310.36224
308.19086
314.5432
314.78222
305.52043
309.80781
305.40155
305.31857
310.60468
307.16374
307.21186
307.07079
312.57727
307.14145
308.86874
307.76404
309.21426
308.84209
308.15639
307.80773
307.71771
314.5894
308.15235
308.15227
306.66743
305.39141
312.40573
306.48566
311.80236
306.97784
308.68186
319.705
309.30454
323.31423
308.54463
307.97163
308.36214
318.09228
319.90586
312.81304
315.84293
306.72112
308.11475
307.21402
307.15353
315.48742
316.67503
307.56628
309.68866
316.76697
309.47966
314.56669
308.50304
311.02661
311.77935
312.59383
311.52303
315.88774
308.70706
307.61778
308.52583
311.4805
307.477
307.00104
309.70812
313.57782
312.43225
311.3346
305.22964
305.37004
313.53297
305.8138
314.12232
307.0691
311.97563
306.09734
307.03786
316.30967
310.55921
305.30926
305.18763
305.51585
306.82441
315.02201
315.39901
305.47753
304.03918
311.05169
312.40693
311.66574
311.04816
310.10988
314.41581
305.19969
301.86296
302.7973
308.19537
304.78102
304.57272
305.33105
310.84018
311.35158
310.9846
311.68682
309.51469
309.23289
309.72182
311.51483
310.40121
312.09926
310.38217
309.85267
311.90407
312.86746
312.41536
313.11059
309.26725
316.50494
310.67674
311.21191
313.69206
315.02426
311.81678
306.24617
308.06872
310.56861
309.81055
311.99658
311.51933
304.78674
304.92137
305.13572
308.07298
307.80714
306.41498
305.30403
309.34982
308.40635
309.14566
308.57902
307.66433
309.28741
309.07973
302.59896
304.83081
314.05336
309.03962
310.88729
315.09536
308.21447
309.7
310.02973
309.99524
309.84164
308.074
308.02464
307.82395
305.84907
310.03057
309.58993
306.29217
316.94918
314.86249
307.37497
309.39331
306.89173
309.87457
307.91475
308.90221
307.10735
309.34599
311.01608
310.32668
308.47255
308.19521
307.78611
310.36986
310.52987
306.27769
310.13516
306.86935
306.62219
306.30775
306.40772
306.00255
309.17866
309.49811
306.76673
312.20402
312.92706
305.5976
311.38456
305.18435
305.25619
310.68038
306.68054
307.27418
307.22637
311.93648
308.46864
308.44927
307.90515
309.44757
309.70957
310.54964
307.5275
307.84494
313.01869
307.11371
317.79592
306.15365
305.271
310.76304
306.09352
310.84346
306.87713
308.42909
306.97635
309.17127
321.96043
306.97054
307.50547
310.55597
306.18222
309.41635
307.33916
312.25173
307.56989
306.97945
307.05774
315.34278
314.8424
316.07446
315.47683
315.21006
315.17505
316.438
313.54166
307.55998
316.25805
306.36178
306.32379
307.3258
307.96203
307.15012
306.98745
314.88324
317.52744
307.19504
309.20602
314.82072
309.01669
314.28764
308.76132
311.61832
311.37428
312.70621
310.50673
315.43282
308.84647
311.7297
311.0788
309.84646
306.38481
306.90858
313.22251
309.98421
307.88169
308.60189
307.15602
308.60614
310.64042
307.87407
306.02893
306.2489
306.59439
307.90272
315.0399
309.92879
311.82939
312.76569
312.76741
311.15392
311.68918
312.42978
305.18921
305.19522
311.68787
305.75127
311.65473
306.38473
310.76314
306.24636
308.28891
307.40988
305.49169
304.43344
306.49776
305.87625
306.41636
306.37973
306.47846
305.72784
306.71306
306.10866
313.23013
311.69527
312.09824
311.53137
317.10177
309.56074
307.01982
313.30078
315.19678
305.92804
304.6117
310.84976
313.7275
314.48759
304.46852
302.16085
303.33774
307.60121
310.36604
310.88365
310.5752
311.25978
308.17257
314.7709
311.77649
306.46592
306.68451
305.47086
307.88389
310.33378
308.40706
305.36954
309.21045
307.36076
309.98574
309.87082
304.05221
305.07052
314.04736
308.67476
310.95497
314.89701
307.5162
309.0706
308.388
306.21739
313.54026
314.10079
306.58289
309.73262
307.98727
310.44952
309.09924
310.31142
308.16458
309.63213
308.15722
306.06822
309.38406
310.0592
308.09394
314.20887
314.53537
305.40709
309.63651
305.31798
305.19293
310.42749
306.9796
307.02111
306.91508
312.34812
307.02461
308.58115
307.60277
308.94608
308.75685
307.97875
307.54837
307.48524
314.11984
307.90481
307.94439
306.46952
305.28969
312.03583
306.33278
311.57115
306.80015
308.47216
318.77801
309.06583
322.49287
308.288
307.76024
308.11164
317.31679
319.33504
312.24471
315.18782
306.49389
307.84248
307.05089
306.8383
315.06779
316.34101
307.44427
309.57377
316.5057
309.37181
314.27656
308.24899
310.86595
311.64312
312.37216
311.43266
315.2848
308.46559
307.57375
308.41086
311.14598
307.31409
306.87102
309.49307
313.28547
312.01395
310.91878
305.08588
305.21202
313.24334
305.73463
313.71182
306.99728
311.90855
305.95685
306.71536
315.55768
310.17403
305.02082
305.08336
305.28149
306.55544
314.65377
314.91923
305.33084
304.00772
310.69797
312.15733
311.34662
310.77852
309.79396
313.85838
304.98165
301.80635
302.82781
308.01851
304.61297
304.45252
305.11193
310.23445
310.67525
310.3525
310.96268
309.01205
308.80711
309.20672
310.93354
309.91661
311.46542
309.88646
309.39907
311.29005
312.05666
311.64986
312.38308
309.12884
316.26102
310.54685
310.94562
313.47539
314.49669
311.32158
306.00279
307.75918
310.41865
309.6071
311.67351
311.16491
304.60043
304.84697
304.91225
307.86078
307.56512
306.09034
305.25208
309.09638
308.17034
308.99405
308.29575
307.51317
308.95266
308.79846
302.57922
304.68813
313.57505
308.91468
310.48682
314.84482
308.14869
309.5853
309.88274
309.88944
309.75271
307.90569
307.83202
307.69992
305.79785
309.79575
309.25169
306.14551
316.70311
314.45288
307.29485
309.2021
306.7439
309.84655
307.59223
308.65543
306.94042
309.2192
310.85157
310.09341
308.331
307.99199
307.54945
310.12126
310.2872
306.16461
309.95046
306.70395
306.44454
306.17766
306.24205
305.98187
308.94265
309.10614
306.58836
312.11427
312.60696
305.41444
311.02942
305.04804
305.08114
310.47513
306.54008
307.05947
307.04431
311.72188
308.50925
308.1625
307.735
309.17228
309.70027
310.51669
307.26178
307.56692
312.61427
306.91635
317.28408
305.98166
305.16353
310.46101
305.95621
310.60387
306.68639
308.18334
306.85166
308.92419
321.04787
306.77566
307.28
310.14234
306.08442
309.21129
306.9887
311.95738
307.26809
306.63565
306.75909
314.60237
314.18655
315.42364
314.88283
314.47461
314.42167
315.7727
312.88667
307.4083
315.7775
306.1203
306.08806
307.17609
307.71392
306.97808
306.62191
314.52928
317.19776
307.08493
309.06467
314.5429
308.87965
313.9294
308.5589
311.44401
311.27988
312.50763
310.40873
314.69276
308.69231
311.52666
310.91253
309.62826
306.14084
306.7074
312.55392
309.9756
307.56918
308.24715
306.8659
308.23823
310.25926
307.66427
305.87702
306.1274
306.43871
307.72231
314.66099
309.76034
311.3636
312.18422
312.38488
310.84063
311.14465
311.72232
305.05789
305.05966
311.46213
305.68411
311.36907
306.31272
310.70175
306.08756
308.06248
307.08836
305.23897
304.23973
306.42275
305.65366
306.04838
306.00308
306.27782
305.45425
306.57438
305.86092
312.49774
311.15334
311.76704
311.07955
316.51247
309.17395
306.86264
312.92339
314.6104
305.83131
304.58179
310.44322
313.43209
313.69859
304.29091
302.10793
303.326
307.32759
309.78853
310.23963
309.99599
310.58432
308.09912
314.51063
311.47978
306.30703
306.55041
305.23175
307.5504
309.81821
308.16426
305.23233
309.03608
307.09394
309.58463
309.50055
303.91101
304.9631
313.63803
308.47315
310.40802
314.42868
307.4529
308.77789
308.15016
306.20877
313.20741
313.8509
306.53156
309.39959
307.97086
310.05135
308.79573
310.04777
307.98043
309.55299
307.93706
306.02378
309.09235
309.70662
307.98049
313.81952
314.24696
305.27378
309.43353
305.2194
305.04514
310.21966
306.76398
306.799
306.73177
312.07887
306.88838
308.24737
307.41457
308.6337
308.65626
307.7725
307.24804
307.21542
313.57128
307.61711
307.70347
306.23847
305.17032
311.60237
306.15332
311.29985
306.5931
308.22846
317.70836
308.78732
321.54369
307.98895
307.51525
307.82039
316.41983
318.6721
311.5918
314.42204
306.22736
307.52501
306.86089
306.47133
314.57985
315.95201
307.30185
309.4392
316.20108
309.24586
313.9363
307.95358
310.67899
311.48226
312.11403
311.32767
314.58088
308.18351
307.52199
308.27614
310.75919
307.12505
306.7192
309.2395
312.94244
311.52275
310.42953
304.91794
305.02655
312.90581
305.64232
313.23255
306.91298
311.82969
305.7923
306.34067
314.69408
309.73194
304.68866
304.96152
305.0092
306.24558
314.22889
314.36389
305.15987
303.97081
310.29057
311.86861
310.97842
310.46407
309.42665
313.21192
304.73099
301.74085
302.86218
307.81335
304.4176
304.31368
304.85892
309.52638
309.88786
309.61512
310.12196
308.42392
308.30825
308.60412
310.25587
309.35116
310.72798
309.30652
308.86768
310.57646
311.11779
310.76212
311.54244
308.96605
315.97944
310.395
310.63461
313.22308
313.88767
310.7454
305.72012
307.40121
310.24363
309.36887
311.29655
310.75229
304.38618
304.76047
304.65342
307.61366
307.28241
305.71495
305.19118
308.80095
307.89504
308.81741
307.966
307.33677
308.56152
308.47019
302.55691
304.52205
313.01996
308.77072
310.02376
314.55416
308.07253
309.45032
309.71005
309.76495
309.64774
307.71109
307.60876
307.55549
305.73653
309.5239
308.85946
305.97554
316.41938
313.97905
307.2013
308.9807
306.57211
309.81299
307.21889
308.37035
306.74712
309.06959
310.65831
309.81951
308.16627
307.75727
307.2748
309.83042
310.00332
306.0319
309.73394
306.51244
306.23928
306.02664
306.0501
305.95706
308.66958
308.65393
306.38102
312.00925
312.23551
305.20206
310.61756
304.88948
304.87807
310.23613
306.37591
306.81163
306.83281
311.47105
308.5547
307.83211
307.53798
308.85425
309.68602
310.47687
306.95657
307.24799
312.1441
306.68706
316.69351
305.78132
305.03823
310.10874
305.79551
310.32494
306.466
307.90134
306.70322
308.63832
320.00352
306.54978
307.02047
309.66926
305.96793
308.97519
306.58397
311.59303
306.92057
306.23567
306.41466
313.74898
313.42738
314.67352
314.19839
313.62699
313.55397
315.00593
312.12905
307.22957
315.21813
305.84097
305.8146
307.00138
307.42604
306.77896
306.19972
314.12118
316.81823
306.9571
308.90025
314.22169
308.72072
313.51371
308.32634
311.2438
311.16889
312.27875
310.29555
313.83756
308.51197
311.28956
310.71751
309.37614
305.85745
306.47343
311.77978
309.96451
307.20692
307.8366
306.52961
307.81729
309.82271
307.42329
305.70041
305.98629
306.25847
307.51232
314.22098
309.56324
310.82277
311.51168
311.94202
310.47544
310.51076
310.90375
304.90552
304.90115
311.20037
305.60637
311.03678
306.22862
310.62996
305.90406
307.80368
306.71873
304.94349
304.01366
306.33486
305.39737
305.62416
305.56863
306.04354
305.13821
306.41223
305.57146
311.65038
310.52285
311.38188
310.55396
315.83563
308.72808
306.68034
312.48632
313.93429
305.7184
304.5478
309.97431
313.09018
312.78803
304.08685
302.04619
303.31469
307.00988
309.11393
309.48995
309.31814
309.79836
308.00713
314.20917
311.13597
306.12326
306.39535
304.95469
307.16506
309.22166
307.88512
305.07295
308.83283
306.78064
309.11664
309.07305
303.74813
304.83997
313.16519
308.24236
309.77589
313.88648
307.37868
308.43762
307.87389
306.19787
312.82233
313.56095
306.4711
309.01381
307.95113
309.59094
308.4464
309.74427
307.76819
309.45918
307.68228
305.97137
308.7535
309.30041
307.84902
313.36953
313.91295
305.11798
309.19566
305.10395
304.8729
309.97756
306.51363
306.54285
306.51818
311.76512
306.73114
307.86384
307.19697
308.27339
308.53822
307.53558
306.90386
306.90525
312.93656
307.28603
307.42689
305.97137
305.03138
311.09961
305.94455
310.98456
306.35406
307.94799
316.48836
308.46547
320.45841
307.64398
307.23416
307.48515
315.39423
317.91058
310.85109
313.53547
305.91777
307.15841
306.64176
306.04869
314.01827
315.50376
307.13671
309.28304
315.84949
309.10016
313.54126
307.61355
310.46353
311.29367
311.81638
311.20684
313.76766
307.85726
307.46155
308.11963
310.3167
306.90794
306.54359
308.94307
312.5438
310.95166
309.85958
304.72366
304.81089
312.51589
305.53568
312.67935
306.81499
311.73754
305.60128
305.9099
313.71781
309.22844
304.3133
304.82129
304.6986
305.89232
313.746
313.73197
304.96253
303.92788
309.82894
311.5379
310.55818
310.10336
309.00556
312.47488
304.44038
301.66554
302.89947
307.57776
304.19446
304.15517
304.57044
308.71022
308.98478
308.76755
309.16122
307.74454
307.73196
307.9082
309.47792
308.69971
309.8834
308.63725
308.25323
309.75909
310.04783
309.74873
310.58509
308.78077
315.65831
310.22012
310.27698
312.93264
313.19422
310.08435
305.39559
306.99256
310.0423
309.09413
310.86483
310.27855
304.14337
304.66208
304.35713
307.33068
306.95628
305.28653
305.12016
308.46145
307.57786
308.61397
307.58743
307.13314
308.10742
308.09215
302.52913
304.33136
312.38603
308.60673
309.49585
314.22151
307.98532
309.293
309.50934
309.6199
309.52486
307.48897
307.35334
307.3891
305.66324
309.21325
308.41069
305.78098
316.09662
313.43908
307.0931
308.72776
306.37481
309.77286
306.79237
308.0454
306.52621
308.89465
310.43373
309.50147
307.97676
307.4897
306.95987
309.49453
309.67555
305.87794
309.48321
306.2935
306.00529
305.85347
305.8306
305.92738
308.35772
308.13961
306.14312
311.8881
311.80993
304.95918
310.14354
304.70756
304.64558
309.9616
306.18625
306.52935
306.58997
311.1813
308.60395
307.45674
307.31266
308.49146
309.66436
310.42874
306.61093
306.8874
311.60472
306.42442
316.02199
305.55095
304.89368
309.70333
305.60991
310.00469
306.2145
307.58173
306.52786
308.3124
318.82652
306.29176
306.72621
309.13626
305.8303
308.70781
306.12321
311.14509
306.52618
305.7771
306.02329
312.78078
312.56148
313.82187
313.42145
312.66503
312.57006
314.13529
311.26568
307.02091
314.57532
305.52227
305.50153
306.79972
307.09591
306.55165
305.71916
313.65747
316.38774
306.81044
308.71135
313.85535
308.53887
313.03797
308.06276
311.01699
311.03963
312.01846
310.16644
312.86407
308.30328
311.0159
310.49123
309.08862
305.5323
306.20455
310.89724
309.95002
306.79234
307.36731
306.14525
307.34297
309.33013
307.15037
305.49751
305.82443
306.05247
307.27096
313.71738
309.33538
310.20315
310.74559
311.4367
310.0556
309.78351
309.97148
304.73099
304.71792
310.90045
305.51697
310.65578
306.13147
310.5467
305.69515
307.5122
306.2998
304.60245
303.75324
306.23303
305.10652
305.14255
305.07513
305.77346
304.77799
306.22487
305.23723
310.68534
309.80003
310.94032
309.95133
315.07033
308.22219
306.47184
311.98878
313.16473
305.58796
304.50603
309.44181
312.7002
311.75259
303.85339
301.97531
303.2985
306.64421
308.33611
308.63009
308.53595
308.89776
307.90537
313.8648
310.74236
305.91378
306.21828
304.63789
306.72617
308.54126
307.56821
304.8906
308.59886
306.41617
308.57735
308.58687
303.56176
304.69783
312.62577
307.98146
309.05449
313.26661
307.29335
308.04709
307.55702
306.18381
312.38277
313.2295
306.40035
308.57279
307.92749
309.06574
308.04994
309.39972
307.52679
309.34879
307.39123
305.91
308.36451
308.83912
307.69855
312.85777
313.53172
304.93844
308.92227
304.97027
304.67472
309.69909
306.22663
306.25143
306.2719
311.4042
306.55211
307.42933
306.94857
307.86331
308.4008
307.26744
306.5151
306.55374
312.21271
306.91044
307.11415
305.66682
304.87157
310.52438
305.70486
310.62335
306.08162
307.62955
315.12008
308.09827
319.23692
307.25134
306.91617
307.10446
314.24039
317.04854
310.02519
312.52352
305.56259
306.74093
306.39253
305.56905
313.38131
314.99448
306.94792
309.10401
315.44936
308.93372
313.0888
307.22767
310.21851
311.07494
311.47789
311.06953
312.84222
307.48493
307.39173
307.94001
309.81809
306.66208
306.34307
308.601
312.08704
310.29727
309.20515
304.50194
304.56342
312.07198
305.41409
312.04929
306.70235
311.63143
305.38238
305.42202
312.63779
308.67163
303.89824
304.66154
304.35012
305.49951
313.20873
313.02661
304.73915
303.87832
309.31423
311.16718
310.09037
309.69789
308.53325
311.65146
304.11421
301.58039
302.9382
307.31214
303.94444
303.97754
304.24824
307.78924
307.97232
307.81399
308.0892
306.97594
307.07995
307.12106
308.6044
307.96682
308.93764
307.88043
307.55713
308.84304
308.85822
308.61934
309.52153
308.57234
315.29962
310.02178
309.87335
312.606
312.42255
309.34206
305.02973
306.53514
309.8152
308.78376
310.37957
309.74627
303.87381
304.55146
304.0244
307.01273
306.58665
304.80862
305.03892
308.07958
307.22063
308.38456
307.16221
306.90172
307.59136
307.66417
302.49559
304.11672
311.67383
308.42372
308.90738
313.84806
307.88705
309.11228
309.2798
309.45342
309.38292
307.24015
307.06656
307.20069
305.57629
308.86519
307.90676
305.56218
315.73692
312.83686
306.96976
308.44418
306.15215
309.725
306.31443
307.68227
306.27853
308.69299
310.17702
309.1385
307.76239
307.19047
306.60532
309.11411
309.30452
305.70217
309.19823
306.048
305.74369
305.65852
305.58429
305.89148
308.00846
307.56694
305.87527
311.75
311.33259
304.68694
309.61249
304.5025
304.38448
309.65251
305.97045
306.21412
306.31616
310.85261
308.65459
307.03885
307.05961
308.08564
309.6318
310.37051
306.22752
306.48822
310.99849
306.12894
315.27472
305.29113
304.72982
309.24613
305.39924
309.64442
305.93295
307.22669
306.32328
307.94751
317.52991
306.00263
306.39917
308.54869
305.6697
308.41113
305.60957
310.60108
306.08813
305.26119
305.58761
311.70723
311.59549
312.87619
312.55891
311.59793
311.47985
313.16769
310.30342
306.78115
313.8506
305.16583
305.15007
306.57119
306.72476
306.29712
305.18376
313.14144
315.90978
306.64531
308.49829
313.4461
308.33473
312.50472
307.7703
310.76517
310.89114
311.72822
310.02184
311.7806
308.06576
310.70543
310.23289
308.7671
305.166
305.90094
309.91375
309.93082
306.32699
306.84112
305.71481
306.82004
308.78603
306.84747
305.26859
305.64201
305.82145
306.99896
313.1527
309.07668
309.50763
309.89237
310.87261
309.5827
308.9672
308.93441
304.53505
304.50997
310.56375
305.41615
310.22743
306.02109
310.45174
305.4619
307.19095
305.83499
304.21626
303.45888
306.11682
304.78347
304.60783
304.52698
305.46787
304.37591
306.01227
304.85874
309.61148
308.98927
310.44472
309.2751
314.2238
307.66272
306.23857
311.43408
312.30714
305.43943
304.4562
308.84775
312.26425
310.60333
303.59287
301.89464
303.27933
306.2316
307.45882
307.66615
307.65155
307.88895
307.78797
313.47909
310.30182
305.67937
306.01989
304.28252
306.2366
307.78186
307.21595
304.68547
308.33492
305.99823
307.96639
308.04569
303.35314
304.53749
312.02356
307.69333
308.2485
312.57401
307.19615
307.60729
307.20024
306.16526
311.89114
312.85838
306.31817
308.07842
307.899
308.47862
307.60907
309.01649
307.25755
309.22039
307.06519
305.83869
307.92631
308.32629
307.52931
312.28755
313.1053
304.73506
308.60964
304.81791
304.45094
309.38613
305.90381
305.9264
305.99285
310.99674
306.35224
306.9472
306.6703
307.40587
308.24268
306.97029
306.0851
306.16361
311.40486
306.49328
306.768
305.32654
304.69102
309.88013
305.43499
310.21796
305.77689
307.27495
313.6229
307.68772
317.89312
306.8134
306.56368
306.68068
312.97259
316.09381
309.12703
311.39265
305.16307
306.27534
306.11473
305.03651
312.67462
314.42813
306.73617
308.90257
315.00327
308.74717
312.58132
306.79888
309.94531
310.82536
311.10067
310.91647
311.81231
307.06854
307.31213
307.73755
309.26833
306.38929
306.11837
308.21365
311.57449
309.56358
308.46981
304.25393
304.28501
311.5769
305.27796
311.34761
306.57531
311.51075
305.13631
304.88156
311.4841
308.07303
303.4548
304.48395
303.97026
305.07441
312.63027
312.26507
304.49315
303.8215
308.75976
310.76429
309.58428
309.25605
308.0194
310.75974
303.75554
301.48662
302.97437
307.02105
303.67186
303.78389
303.89913
306.78425
306.87702
306.77756
306.93595
306.13442
306.366
306.25908
307.65587
307.16813
307.91467
307.05216
306.79327
307.85202
307.5841
307.40599
308.38141
308.34564
314.91065
309.80339
309.43246
312.24901
311.59133
308.53578
304.62897
306.03849
309.56607
308.44338
309.85225
309.16729
303.58359
304.43096
303.66312
306.6661
306.18071
304.29333
304.94788
307.66333
306.8307
308.13304
306.69964
306.6454
307.01987
307.19339
302.45433
303.88244
310.9003
308.22482
308.27166
313.44173
307.77883
308.90932
309.02377
309.26656
309.22213
306.96915
306.7535
306.9925
305.47455
308.48668
307.35798
305.32251
315.34808
312.18632
306.83217
308.1355
305.90749
309.66812
305.79507
307.28867
306.00857
308.46572
309.89089
308.73539
307.52607
306.86535
306.21728
308.69606
308.89664
305.50681
308.88346
305.78049
305.45969
305.445
305.31572
305.84804
307.62911
306.94969
305.58237
311.59685
310.81364
304.39103
309.03384
304.2779
304.09975
309.315
305.73148
305.87251
306.01594
310.48999
308.70192
306.58803
306.7831
307.64516
309.58373
310.30019
305.8153
306.06026
310.33863
305.80644
314.47027
305.00649
304.54882
308.74633
305.1667
309.25171
305.62675
306.84416
306.09049
307.55138
316.15048
305.68778
306.04656
307.92199
305.48655
308.09173
305.05528
309.95559
305.61725
304.69863
305.11796
310.55846
310.55437
311.86135
311.63362
310.4551
310.31406
312.12805
309.26755
306.5127
313.05799
304.77921
304.7673
306.31909
306.31997
306.02036
304.60671
312.58574
315.39619
306.46393
308.26453
313.00277
308.11188
311.92601
307.45559
310.49373
310.72426
311.414
309.86406
310.616
307.80246
310.36269
309.94547
308.41803
304.76506
305.56738
308.85592
309.90502
305.82039
306.26877
305.248
306.26212
308.20435
306.52132
305.01728
305.44176
305.56963
306.70163
312.53955
308.79108
308.7519
308.97459
310.26373
309.06682
308.08171
307.8218
304.32137
304.28043
310.19681
305.30514
309.7609
305.89871
310.34561
305.20934
306.848
305.33581
303.79215
303.13581
305.98715
304.43598
304.03406
303.93866
305.13207
303.94114
305.77762
304.44271
308.45869
308.11038
309.90631
308.54129
313.31829
307.06214
305.98374
310.83477
311.38378
305.27412
304.39701
308.20773
311.79199
309.37101
303.30995
301.80455
303.25449
305.77977
306.50138
306.62248
306.68418
306.79888
307.66015
313.06016
309.82395
305.42433
305.80384
303.89597
305.70812
306.96222
306.8371
304.46172
308.04616
305.53103
307.29423
307.4621
303.12631
304.3613
311.37154
307.38448
307.37584
311.82443
307.08793
307.12668
306.81034
306.14026
311.35851
312.45482
306.22429
307.54105
307.86458
307.84281
307.13403
308.60328
306.96586
309.07367
306.7105
305.75683
307.44713
307.77419
307.34364
311.67264
312.64322
304.51129
308.26567
304.64859
304.2055
309.04407
305.55125
305.57475
305.68518
310.55017
306.13556
306.42901
306.36731
306.91117
308.06418
306.65133
305.62436
305.7442
310.53294
306.04462
306.39694
304.95797
304.49238
309.18197
305.14011
309.77736
305.44568
306.89177
312.04363
307.24254
316.46529
306.34007
306.18475
306.22328
311.6289
315.07155
308.18576
310.17074
304.72719
305.77268
305.81439
304.46474
311.91613
313.81872
306.50532
308.68195
314.52064
308.54386
312.03003
306.33752
309.6495
310.54792
310.69313
310.7504
310.70528
306.61703
307.22291
307.51543
308.68189
306.09558
305.87357
307.78806
311.01762
308.76837
307.67108
303.9848
303.9811
311.04238
305.1297
310.5915
306.4355
311.37698
304.86765
304.3029
310.32014
307.46414
303.00658
304.29379
303.57686
304.63802
312.03912
311.48593
304.2343
303.75701
308.1918
310.34764
309.0666
308.79945
307.49012
309.84809
303.38205
301.38644
303.00189
306.71599
303.38792
303.58141
303.53902
305.74768
305.75967
305.71402
305.76736
305.26235
305.62595
305.36623
306.684
306.34493
306.87116
306.19461
305.99902
306.83931
306.29982
306.17839
307.23025
308.10903
314.50863
309.57286
308.9748
311.87779
310.74446
307.70708
304.2106
305.52602
309.30615
308.08904
309.30791
308.5709
303.28581
304.30387
303.29281
306.30636
305.7565
303.76737
304.84921
307.23308
306.42683
307.8698
306.22264
306.37305
306.41813
306.70033
302.40439
303.63885
310.1019
308.01788
307.62062
313.02067
307.6636
308.68954
308.74967
309.06423
309.04561
306.68692
306.42725
306.77146
305.35862
308.09466
306.79011
305.07105
314.94776
311.52006
306.68346
307.81488
305.64994
309.60092
305.25909
306.88285
305.72773
308.21933
309.58511
308.30814
307.27616
306.52826
305.81227
308.25901
308.46999
305.29872
308.55167
305.50213
305.16552
305.22105
305.0361
305.79492
307.2371
306.31908
305.2768
311.43279
310.27815
304.08496
308.43505
304.04266
303.80377
308.9641
305.478
305.52008
305.70167
310.10806
308.73749
306.12598
306.49418
307.19022
309.51494
310.21576
305.39403
305.62466
309.65763
305.47099
313.65026
304.7091
304.35699
308.22764
304.92132
308.84496
305.30897
306.45178
305.83685
307.14189
314.76474
305.36056
305.68464
307.28855
305.28628
307.7646
304.48819
309.22207
305.13708
304.11611
304.63737
309.39863
309.49454
310.8316
310.69525
309.29973
309.13805
311.07126
308.21466
306.22545
312.23363
304.38037
304.37066
306.05315
305.8999
305.73346
304.01769
312.0182
314.87265
306.27262
308.01904
312.54586
307.87934
311.33019
307.13349
310.21459
310.54318
311.08953
309.69894
309.43404
307.52317
310.00123
309.63944
308.05691
304.34697
305.21748
307.78199
309.86978
305.29644
305.67732
304.76777
305.69784
307.61445
306.18667
304.75343
305.23092
305.30736
306.39216
311.90748
308.48973
307.97391
308.04204
309.64171
308.53292
307.17393
306.69665
304.09896
304.03831
309.81655
305.18714
309.27821
305.768
310.23103
304.94878
306.50017
304.82747
303.34953
302.79793
305.84744
304.08097
303.45154
303.34139
304.78059
303.49481
305.52993
304.00783
307.29171
307.20998
309.3519
307.78789
312.40114
306.45249
305.71869
310.2221
310.44176
305.09668
304.32664
307.55345
311.30629
308.12357
303.01703
301.7065
303.22228
305.30856
305.51376
305.55666
305.68316
305.68823
307.52195
312.62697
309.33195
305.15945
305.57891
303.49599
305.16713
306.12561
306.44996
304.22883
307.74537
305.03229
306.5917
306.86655
302.89055
304.1759
310.70178
307.06949
306.48042
311.05616
306.971
306.62733
306.40458
306.10559
310.81041
312.03752
306.1191
306.98607
307.82276
307.18974
306.64792
308.17971
306.66425
308.91091
306.34286
305.66442
306.94862
307.21021
307.148
311.0436
312.16719
304.27595
307.90289
304.46773
303.94861
308.68875
305.1845
305.21268
305.36147
310.08391
305.91111
305.90039
306.05234
306.40293
307.86903
306.32576
305.15549
305.31623
309.64258
305.58673
306.0194
304.57837
304.28303
308.46551
304.83324
309.32278
305.10227
306.49753
310.47438
306.78405
315.03315
305.85417
305.79709
305.75414
310.286
314.0358
307.25532
308.92281
304.27503
305.25817
305.50524
303.8837
311.14571
313.19694
306.26496
308.4505
314.02377
308.33186
311.46174
305.86652
309.34394
310.25268
310.27435
310.57772
309.58143
306.15189
307.12564
307.28206
308.08896
305.7942
305.61858
307.34332
310.44407
307.95336
306.85091
303.70662
303.66534
310.49423
304.97501
309.82045
306.2879
311.23378
304.58785
303.71683
309.26072
306.90222
302.59524
304.10338
303.20372
304.22921
311.49004
310.76279
303.98316
303.68482
307.66281
309.95305
308.58451
308.36953
306.99435
309.00463
303.02526
301.28486
303.00963
306.42128
303.11627
303.38484
303.19935
304.78566
304.73575
304.73235
304.70428
304.44686
304.93238
304.53187
305.78689
305.5789
305.91298
305.39315
305.25279
305.90724
305.13895
305.06382
306.18527
307.88227
314.1266
309.34743
308.54199
311.52387
309.96423
306.93759
303.8115
305.04463
309.05572
307.75138
308.7981
308.01367
303.00595