/*--------------------------------*- C++ -*----------------------------------*\
  =========                 |
  \\      /  F ield         | OpenFOAM: The Open Source CFD Toolbox
   \\    /   O peration     | Website:  https://openfoam.org
    \\  /    A nd           | Version:  8
     \\/     M anipulation  |
\*---------------------------------------------------------------------------*/
FoamFile
{
    version     2.0;
    format      ascii;
    class       volScalarField;
    location    "7200/buildings";
    object      ws;
}
// * * * * * * * * * * * * * * * * * * * * * * * * * * * * * * * * * * * * * //

dimensions      [1 -3 0 0 0 0 0];

internalField   nonuniform List<scalar> 
3640
(
8.2657708
8.0658276
7.9455244
7.9559987
7.9557541
7.9806114
8.1948021
8.2401642
7.9577034
7.9332148
8.0909551
8.1303344
8.0922652
8.0801978
8.0621065
8.2030608
7.9494786
7.8923651
7.918889
8.021927
7.9414181
7.9377556
7.9505905
8.1026688
8.111774
8.1037666
8.1182534
8.0635928
8.0506728
8.069522
8.1144976
8.0826142
8.1301233
8.087171
8.074533
8.1266102
8.1539545
8.1407402
8.1579613
8.0258969
8.2559646
8.0685374
8.0952115
8.1468382
8.2093378
8.122819
7.9747188
8.0149973
8.0599288
8.0482247
8.109307
8.0969663
7.9380619
7.9395019
7.9420275
8.0092713
8.0116513
7.9684204
7.9461211
8.035172
8.0125612
8.039599
8.0190563
8.0196344
8.0689107
8.0550607
7.907726
7.9370633
8.2251268
8.025231
8.0836159
8.2257493
8.0031831
8.1000281
8.1046547
8.1013433
8.1023142
8.0123585
8.0142565
8.0135409
7.9758322
8.0653182
8.0576117
7.9763553
8.2480887
8.2148388
8.0078822
8.0439716
7.9935916
8.0600425
8.0088219
8.0284019
7.9863252
8.082153
8.1270199
8.1068621
8.0272307
8.0133823
8.0071958
8.0807834
8.0845439
7.9710358
8.0749566
7.9806361
7.9766901
7.9716418
7.9738464
7.9858952
8.0368772
8.0457282
7.9838781
8.1242339
8.1542868
7.9526834
8.1144733
7.9479654
7.9487673
8.0769363
7.9862878
7.9871548
7.9948198
8.1526998
8.0928984
8.0145912
8.0125295
8.047646
8.1451261
8.1362782
7.9917463
7.9968942
8.1495572
7.9858751
8.2944727
7.9673284
7.9525031
8.0871844
7.9679144
8.0750741
7.9839144
8.0170132
7.9919632
8.0383276
8.4728845
7.9857974
7.9939105
8.0638421
7.9732028
8.036887
7.9924832
8.0915024
7.9949077
7.9869506
7.9867794
8.2208293
8.2063044
8.2455017
8.2139862
8.2291414
8.2311035
8.2841803
8.1739185
7.9941865
8.2671692
7.9720541
7.9728813
7.9894249
8.0048374
7.9837592
7.983727
8.1679987
8.2581448
7.9917462
8.040054
8.2113464
8.0220327
8.1687311
8.0128904
8.0805811
8.0907642
8.1205269
8.0476831
8.2394135
8.0191536
8.0952586
8.0862035
8.057594
7.9772749
7.9932207
8.156977
8.0640297
8.0115868
8.0317433
7.9881911
8.0191643
8.0713532
8.0024447
7.9688267
7.9717379
7.9774239
7.9999065
8.2132331
8.0592834
8.1231984
8.1381871
8.129489
8.088582
8.1065112
8.1303824
7.9443287
7.9479133
8.1059272
7.9538753
8.1094207
7.9706929
8.0711679
7.9648677
8.0016827
7.98997
7.9530893
7.9329775
7.9708836
7.9585336
7.970159
7.9696268
7.9744641
7.9566806
7.976974
7.9690228
8.1578545
8.1110957
8.1124021
8.1028527
8.2792287
8.0340835
7.9873407
8.1376547
8.2312418
7.9739059
7.9512072
8.0822634
8.1644612
8.2061758
7.9334222
7.8976789
7.9223085
8.0064445
8.0878235
8.0975743
8.096523
8.1079335
8.0048251
8.2111493
8.0965282
7.9767052
7.9739525
7.9536492
8.0036544
8.0733166
8.0019503
7.9481485
8.0316632
8.0143691
8.0878438
8.0496809
7.9263215
7.9467514
8.2067111
8.011431
8.1019748
8.2203689
8.001235
8.0444074
8.0245194
7.9842639
8.1713207
8.1900596
7.9995482
8.0591839
8.0068133
8.080035
8.0329393
8.0584965
8.009597
8.088281
8.0136678
7.9856248
8.0569974
8.0615486
8.0071011
8.1850849
8.1947016
7.9517046
8.0719386
7.9544885
7.9472789
8.0679002
7.9877568
7.982299
7.9910934
8.1627532
7.984175
8.0189717
8.0038307
8.0330269
8.0703442
7.9990796
7.9937289
7.990154
8.1844711
7.9991409
7.9950582
7.9726934
7.9531043
8.122048
7.9701491
8.0930046
7.9848533
8.0213324
8.3414001
8.0325477
8.4991876
8.0129408
8.0005757
8.0089559
8.2779647
8.3424498
8.1399783
8.2532635
7.9767691
7.9990695
7.9816481
7.981436
8.1830684
8.2252296
7.9918559
8.0448172
8.2589587
8.0260971
8.1711965
8.0084763
8.0732462
8.0998466
8.1163667
8.0659638
8.2327285
8.0216749
7.9961778
8.025097
8.0755325
7.9874277
7.9815222
8.0529982
8.1393527
8.1135456
8.0848421
7.9430797
7.9462369
8.1472046
7.9518012
8.1655941
7.9764909
8.0936153
7.962806
7.9790759
8.2660808
8.0658223
7.9453538
7.9559593
7.9556325
7.9805256
8.1946801
8.2399549
7.957567
7.93322
8.0907854
8.1299737
8.0921758
8.0797985
8.0617937
8.2031215
7.9494327
7.8923188
7.9189555
8.0218099
7.941293
7.9377055
7.9504696
8.1024121
8.1116537
8.1035465
8.1182329
8.0631219
8.050134
8.0691136
8.1142775
8.0822504
8.1300325
8.0867822
8.0740117
8.1264715
8.1542215
8.1408874
8.1581136
8.0258128
8.2555966
8.0683268
8.0946028
8.1464215
8.2093851
8.1225206
7.9745773
8.014859
8.059579
8.047636
8.1089048
8.0965812
7.9379647
7.9395005
7.9418451
8.0091841
8.0114441
7.9683181
7.9460245
8.034782
8.0121191
8.0392352
8.0187274
8.0194071
8.0684647
8.0547552
7.907787
7.9369663
8.224578
8.0251782
8.0835317
8.2251151
8.003182
8.0993421
8.103967
8.1007064
8.1016819
8.0122652
8.0141441
8.0134176
7.9758498
8.0651879
8.0574799
7.9762779
8.2480096
8.2145239
8.0077045
8.0438952
7.9934631
8.0598717
8.0087443
8.0283635
7.9862988
8.0816875
8.1264245
8.1062653
8.0271146
8.0132915
8.0070996
8.0803525
8.0840844
7.9710613
8.0745018
7.9805725
7.9766123
7.9715821
7.9737706
7.9857004
8.0368135
8.0456196
7.9837741
8.1239297
8.1538455
7.9526387
8.1141607
7.9479425
7.9487194
8.0765743
7.9862371
7.9871382
7.9947592
8.152107
8.0923075
8.0145547
8.0124189
8.0475247
8.1442295
8.1356723
7.9916559
7.9968167
8.1494787
7.9858099
8.2945904
7.9672484
7.9524315
8.0869234
7.9678059
8.0747457
7.9838083
8.0168288
7.9921688
8.038166
8.4740993
7.9856775
7.9938107
8.0636786
7.9733831
8.036853
7.9923471
8.0917961
7.9947456
7.9868035
7.9866279
8.2212754
8.2068047
8.2457414
8.2142043
8.2294206
8.2314406
8.2842723
8.1741167
7.9943236
8.2668748
7.9719588
7.9727724
7.9893897
8.0048037
7.9837217
7.9836024
8.1682221
8.2582604
7.9915916
8.0399066
8.2110183
8.0219664
8.1685752
8.0128876
8.0805598
8.0907345
8.1204271
8.0477456
8.2397859
8.0192162
8.0952771
8.0862246
8.0574665
7.9771384
7.9930845
8.1571352
8.063803
8.011441
8.0315622
7.9881238
8.0189681
8.0711683
8.0023196
7.9687478
7.9716782
7.977352
7.999941
8.2128531
8.0590741
8.1231193
8.138145
8.1292731
8.0882917
8.1065453
8.1306179
7.9442717
7.9478541
8.1057833
7.9538397
8.1092206
7.9706077
8.071023
7.9648243
8.0016355
7.9898805
7.9530033
7.9328507
7.9708206
7.9584648
7.969993
7.9694576
7.9743556
7.9565809
7.9769005
7.9688926
8.1581724
8.1110275
8.1121492
8.1026205
8.2793026
8.0341045
7.987288
8.1375871
8.2313324
7.9738338
7.9511962
8.0821988
8.164191
8.2066287
7.933367
7.8976782
7.9223591
8.0063317
8.0874886
8.0973543
8.0961859
8.1077906
8.0046278
8.2107048
8.0963889
7.9765978
7.9739331
7.9535446
8.0035674
8.0732232
8.0020047
7.9480924
8.0312904
8.0140807
8.0873978
8.0496242
7.9262624
7.9467444
8.206295
8.0113881
8.1017569
8.2201238
8.0011603
8.0442944
8.0244359
7.9840983
8.1709544
8.1896074
7.9993403
8.0590699
8.0067137
8.0798645
8.0328599
8.0584697
8.0095356
8.0878628
8.0135906
7.9854618
8.0568168
8.0613983
8.0070058
8.1848638
8.1943727
7.9516503
8.0715427
7.9544519
7.9472067
8.0675405
7.9877085
7.9822724
7.9910412
8.1621651
7.9841442
8.01888
8.0037302
8.032928
8.0698966
7.9990596
7.9935759
7.9900892
8.1845552
7.9990985
7.995065
7.9726137
7.9530349
8.1218957
7.970083
8.092746
7.9847278
8.0212099
8.3426662
8.0325155
8.5004074
8.0128688
8.0004495
8.0088806
8.2788609
8.3429118
8.1396105
8.2535064
7.9766663
7.9990589
7.981611
7.98131
8.1833192
8.2253291
7.991845
8.0447071
8.2586627
8.0261086
8.1710239
8.008407
8.0731624
8.0998082
8.1162731
8.066047
8.2329939
8.0215721
7.9961196
8.024948
8.0754478
7.9873578
7.9814567
8.05278
8.1393421
8.1134438
8.0847294
7.9430436
7.9461664
8.1470652
7.9518296
8.1655864
7.9765858
8.0935473
7.9627408
7.9789412
8.2574334
8.0632301
7.943774
7.9556117
7.9545001
7.9791782
8.1915228
8.2350894
7.9569555
7.9331987
8.0882151
8.1278232
8.0900044
8.0778718
8.0596027
8.1977336
7.9484249
7.8921909
7.9191194
8.0208562
7.9406203
7.9373189
7.949453
8.0962202
8.1045013
8.0970578
8.110376
8.0584259
8.0466027
8.0642685
8.1086996
8.0779902
8.1237168
8.0822985
8.0699399
8.1204069
8.1447819
8.1322942
8.1502884
8.025174
8.2529371
8.0674368
8.0923947
8.1445071
8.2044524
8.1180854
7.9732919
8.0129683
8.0584365
8.046125
8.1064292
8.0939117
7.9371956
7.9393315
7.9407725
8.0081783
8.0100169
7.9665073
7.9458152
8.0331819
8.0106975
8.0381144
8.0170096
8.0183391
8.0654159
8.0525918
7.9078847
7.9364944
8.2189929
8.0245846
8.0806626
8.2220861
8.0029618
8.0972951
8.1018057
8.0988732
8.0998668
8.0114462
8.013151
8.0127447
7.9757152
8.0637313
8.0552059
7.9756712
8.2458062
8.2105288
8.0070972
8.042888
7.9926934
8.0593656
8.006904
8.0271448
7.9856971
8.0800608
8.1243419
8.10373
8.0263454
8.0122988
8.0058866
8.0783989
8.0821427
7.9707948
8.0729516
7.9798886
7.9758426
7.9710816
7.9730708
7.9852216
8.0355491
8.0429334
7.9829741
8.1227686
8.1508971
7.951979
8.1111739
7.9475514
7.9481042
8.0750774
7.985674
7.986284
7.9939655
8.1495692
8.0907586
8.0130951
8.0115485
8.0458755
8.1417878
8.1339792
7.9903437
7.9954177
8.146252
7.9850013
8.2894731
7.9665847
7.9520812
8.0847068
7.9672836
8.0730849
7.9829223
8.0154831
7.9920357
8.0367534
8.4611978
7.9847933
7.9927646
8.0607564
7.9734074
8.0357923
7.9901788
8.0908563
7.99303
7.9847255
7.9849963
8.2132231
8.2003783
8.2389448
8.2084531
8.2212182
8.222844
8.2766182
8.1674372
7.9940376
8.2619796
7.9707957
7.9716114
7.9888686
8.0036743
7.9830524
7.9813467
8.1657744
8.2554707
7.9910237
8.0390706
8.2083029
8.0213237
8.1656683
8.0120177
8.0796544
8.0902393
8.1191112
8.0473992
8.2314645
8.0187675
8.0943004
8.0854454
8.0561523
7.9758619
7.9920178
8.1505561
8.0632961
8.0094898
8.0291124
7.9866208
8.0165596
8.0684716
8.0012796
7.9681126
7.9712166
7.9766953
7.9992974
8.2092544
8.0580067
8.1192367
8.1328888
8.1262365
8.0861212
8.1020139
8.1235644
7.9438797
7.9474588
8.1042306
7.953656
8.1071219
7.9703435
8.0704326
7.9642684
8.0006198
7.9881105
7.951845
7.9320533
7.9705792
7.9575161
7.9676835
7.967055
7.9734932
7.9552191
7.9764195
7.9676695
8.150592
8.106394
8.1097065
8.0990236
8.2731369
8.0317271
7.9866649
8.1347173
8.2253889
7.9734126
7.9510794
8.0792988
8.1616843
8.197688
7.9326987
7.8976382
7.9224029
8.0047873
8.0817271
8.0907185
8.0903428
8.1006944
8.0043116
8.2079467
8.0943909
7.9758836
7.9734927
7.952421
8.0016318
8.0689332
8.0008784
7.9476453
8.0301518
8.0121038
8.0835926
8.0472587
7.9257977
7.9464279
8.2020124
8.0104668
8.0965872
8.215507
8.0008295
8.0424818
8.0231571
7.9837667
8.1678814
8.1870162
7.9987056
8.0568804
8.0064587
8.0767939
8.0311352
8.0570545
8.0087287
8.0865522
8.0125014
7.9849753
8.0547984
8.0589594
8.0064693
8.1813814
8.1916636
7.9512581
8.0697942
7.9541844
7.9467317
8.0660937
7.9867582
7.981363
7.9902315
8.1591906
7.983628
8.0169562
8.0028012
8.0310704
8.0684002
7.9981619
7.991908
7.988782
8.1795053
7.9976485
7.9940165
7.9715411
7.9526217
8.1183189
7.9693778
8.0908465
7.9836915
8.019892
8.3272456
8.0310392
8.4864249
8.0112397
7.999203
8.0073347
8.2678114
8.3356244
8.1324558
8.2442033
7.9753028
7.9974126
7.9808373
7.9790378
8.1793386
8.2220833
7.9913028
8.0439307
8.255568
8.0255838
8.1682527
8.0068108
8.0721084
8.0989642
8.1145488
8.0656484
8.2252808
8.0199577
7.9958397
8.0241158
8.0728435
7.9865479
7.9808309
8.0511476
8.1369412
8.1094551
8.0809401
7.9424779
7.9454829
8.1444641
7.9516312
8.1614331
7.9764184
8.0929104
7.9621352
7.9765747
8.2367184
8.0569912
7.9402789
7.9545274
7.9516507
7.9758483
8.1840524
8.2230591
7.9554144
7.9330364
8.0819053
8.1230031
8.0848915
8.073655
8.054422
8.1841331
7.9459367
7.8919281
7.9192935
8.0183336
7.938933
7.9363322
7.9469952
8.0807158
8.0871118
8.0810379
8.091666
8.0467737
8.0379376
8.0521719
8.0949156
8.0674688
8.1082256
8.0709826
8.0597321
8.1055147
8.1225072
8.1118153
8.1316253
8.023725
8.2470192
8.0656253
8.0876561
8.1407334
8.1923503
8.1071151
7.969968
8.0081855
8.0564461
8.0432922
8.1007414
8.0877024
7.9354054
7.9389297
7.9384561
8.0055587
8.0063579
7.9622007
7.9455608
8.0297433
8.0077562
8.0358386
8.013073
8.0155985
8.0576665
8.047035
7.9079784
7.935439
8.2052735
8.0232089
8.073496
8.2155555
8.0024389
8.0927287
8.0969081
8.094878
8.0958728
8.009372
8.0105776
8.0110119
7.9749924
8.06
8.0492799
7.9740243
8.2407583
8.2009538
8.0056681
8.0402824
7.990674
8.0582958
8.0021327
8.0239359
7.9840565
8.0761014
8.1194558
8.0975194
8.0243421
8.0097582
8.0026911
8.0737677
8.0776152
7.96988
8.0694808
7.9781845
7.9739321
7.9698081
7.9712883
7.9841624
8.0323018
8.0363602
7.9808981
8.1204388
8.1440231
7.9503055
8.1037682
7.9464473
7.9464772
8.0718381
7.9840121
7.9840334
7.9917795
8.1435488
8.0874248
8.0093849
8.00928
8.041668
8.1362811
8.1302036
7.987175
7.9920646
8.1379909
7.982868
8.2770061
7.9648506
7.9511584
8.0791769
7.9659331
8.0694487
7.9807115
8.0122743
7.9908272
8.0331846
8.4304692
7.9825445
7.9901737
8.0540024
7.9727254
8.0331779
7.9849591
8.0871103
7.9889831
7.9794885
7.9809795
8.1938555
8.1841678
8.2224609
8.1945382
8.2014288
8.2020964
8.2578751
8.1509754
7.9927603
8.2497436
7.9678706
7.9686564
7.9874631
8.0006443
7.9813626
7.9759406
8.1597511
8.2488665
7.9897728
8.0370866
8.2018898
8.0198808
8.1588593
8.0099046
8.0775047
8.0888518
8.1159833
8.0465437
8.2110637
8.0173371
8.0915626
8.0830957
8.0528531
7.9725525
7.9891698
8.1345048
8.0622807
8.0045278
8.0229307
7.9827726
8.0110215
8.0621316
7.9988119
7.9664302
7.970012
7.9750399
7.9975046
8.2007448
8.0554648
8.109252
8.120158
8.1191117
8.0809102
8.090603
8.1066038
7.9429444
7.9463733
8.1004313
7.953314
8.1018891
7.9698075
8.0692941
7.9629024
7.9982245
7.9838535
7.9488078
7.9300779
7.9700704
7.9552083
7.9623538
7.9615071
7.9712288
7.9519032
7.9751835
7.9644447
8.1322382
8.0947864
8.1039126
8.0901834
8.2582669
8.025986
7.9850074
8.1278805
8.2106205
7.9721932
7.9506366
8.0720794
8.1558662
8.1760834
7.9310569
7.8974604
7.9224519
8.0006893
8.0674343
8.0746685
8.0756312
8.0835382
8.0034764
8.2016882
8.089671
7.9741114
7.9723759
7.9496036
7.9968511
8.058465
7.9982522
7.9465923
8.0279746
8.0067663
8.0739741
8.0414403
7.9246585
7.9456512
8.1916592
8.0083218
8.083989
8.2042379
8.0000111
8.0376388
8.019695
7.9831041
8.1606641
8.1811618
7.9971978
8.0512084
8.0059636
8.0691349
8.0268119
8.0534571
8.0066686
8.0834626
8.0096712
7.9837894
8.0495268
8.0530444
8.005261
8.1730326
8.185424
7.9501914
8.0655351
7.953368
7.9454977
8.0629805
7.984163
7.9789965
7.9879028
8.1520668
7.9823381
8.0122394
8.0003962
8.0263765
8.0647912
7.9959901
7.9880057
7.9855877
8.166888
7.9940774
7.9914441
7.9688669
7.951527
8.10944
7.9675474
8.0865456
7.9810848
8.0165769
8.2927263
8.0271623
8.4533806
8.0071394
7.9961869
8.0034464
8.24234
8.3179998
8.116632
8.2210845
7.971772
7.993239
7.9789022
7.9735985
8.1696114
8.2142715
7.9899131
8.0421263
8.2483579
8.0243738
8.161745
8.0029119
8.0695323
8.0966117
8.1103225
8.0646839
8.2063845
8.0158633
7.9952484
8.0220997
8.0667052
7.9845957
7.9792666
8.0469873
8.131017
8.0995824
8.0714013
7.9410463
7.9437435
8.1381525
7.9511348
8.1512397
7.9759313
8.0916228
7.9605656
7.9709526
8.2026846
8.0459611
7.9346961
7.9519447
7.9464193
7.9697227
8.1706132
8.2013744
7.9521747
7.9323957
8.0703705
8.1139151
8.0755819
8.0657892
8.0448094
8.1601928
7.9411591
7.8913883
7.9191062
8.0130676
7.9356749
7.934279
7.9425146
8.0551179
8.059443
8.0549835
8.0625444
8.0270672
8.0226926
8.031729
8.0717197
8.0491708
8.082653
8.0512081
8.0416415
8.0806644
8.088409
8.0800142
8.1018683
8.0210031
8.2361339
8.0621042
8.0787177
8.13384
8.171076
8.0877104
7.963606
7.999346
8.0528688
8.0379765
8.0902528
8.0762891
7.9322176
7.9381157
7.9344555
8.000388
7.9991709
7.9549627
7.9450975
8.0233166
8.0022344
8.0314305
8.0058017
8.0098386
8.0430353
8.0362395
7.9077214
7.9333848
8.180359
8.0205335
8.0606008
8.2035599
8.001371
8.0837538
8.087256
8.0870436
8.0879906
8.0051598
8.005348
8.0072554
7.9728091
8.0526185
8.0380701
7.9704737
8.2314598
8.1835193
8.0026176
8.0350086
7.9863803
8.0562675
7.9933284
8.0176714
7.9806422
8.0679088
8.1096111
8.0852225
8.02008
8.0047214
7.9963677
8.0647235
8.0687918
7.9676438
8.0625877
7.974825
7.9702191
7.9671574
7.9677222
7.9819003
8.0259617
8.0247966
7.9766479
8.1161242
8.1311815
7.9470792
8.0897965
7.9440722
7.9432238
8.0655758
7.9802686
7.9796499
7.9872117
8.1316988
8.0809714
8.0025001
8.0045965
8.0335872
8.1252079
8.1226122
7.9814729
7.9861216
8.1226463
7.9786369
8.2548963
7.9613225
7.9490815
8.0686044
7.963051
8.0625734
7.9763909
8.0062836
7.9873897
8.0263227
8.3806734
7.9781109
7.9852839
8.0425698
7.9704321
8.028244
7.976001
8.0787326
7.9818817
7.9702957
7.9737471
8.162461
8.1567158
8.1946122
8.1709554
8.1688901
8.1681819
8.225699
8.1235371
7.9896242
8.2272193
7.9624208
7.9630824
7.9844506
7.9947276
7.9780556
7.9668466
8.1488356
8.2369006
7.9872505
8.0330521
8.1898161
8.0171023
8.1464669
8.0059786
8.0734722
8.0857098
8.1100513
8.0448546
8.1772881
8.0141623
8.085835
8.0778938
8.0463728
7.9662111
7.9833535
8.1080367
8.0604741
7.9954051
8.0116701
7.9757363
8.0016298
8.0510765
7.9941837
7.9629306
7.967443
7.9717239
7.9937679
8.1850347
8.0502799
8.0911655
8.0986491
8.106289
8.0710097
8.0710649
8.0796525
7.9410496
7.9439922
8.0929413
7.9526031
8.0918279
7.9686352
8.0671753
7.9602181
7.9939559
7.9764794
7.9432405
7.9264236
7.9689585
7.9509796
7.9537241
7.9525797
7.9667268
7.9460982
7.9725276
7.9583236
8.1028236
8.0747875
8.0930969
8.0744518
8.2327427
8.0161718
7.981547
8.1156221
8.1847333
7.9693383
7.9491553
8.0591569
8.145045
8.1414289
7.9279624
7.8969231
7.9221108
7.992718
8.0437874
8.0490171
8.0510744
8.0563226
8.0020883
8.1900282
8.0808933
7.9705729
7.9701039
7.9444498
7.9883852
8.0407884
7.9935723
7.9444916
8.0238546
7.9963516
8.0564129
8.031107
7.9224387
7.9438641
8.1726253
8.004416
8.0625507
8.183753
7.9982489
8.0281878
8.0127452
7.9817187
8.1472868
8.1702251
7.9939361
8.0404701
8.0050861
8.0553316
8.0188307
8.0466356
8.0025616
8.0770234
8.0040574
7.981133
8.0392876
8.0423984
8.0028529
8.1578886
8.1738209
7.9478718
8.0570542
7.9513828
7.9429212
8.0569683
7.978938
7.9744477
7.982936
8.1383063
7.9797079
8.0038011
7.995536
8.0176492
8.0572815
7.9919547
7.9811938
7.9798485
8.1448536
7.9876848
7.9868047
7.9638919
7.9491441
8.0934834
7.9638838
8.0784979
7.9760275
8.0102281
8.2414061
8.0197745
8.4002455
7.999615
7.9906013
7.9962835
8.2029836
8.2881424
8.0915197
8.1824596
7.9651663
7.9857765
7.9752111
7.9644542
8.1527303
8.2002123
7.9870935
8.0385373
8.2350734
8.0220504
8.1497673
7.9959449
8.064537
8.091499
8.1023328
8.0628555
8.1748055
8.0081542
7.9940813
8.0180298
8.0561535
7.9809189
7.9761474
8.0387724
8.1198906
8.082318
8.0547316
7.9382881
7.9403923
8.1264928
7.9501107
8.133255
7.9748556
8.0892772
7.9573792
7.961636
8.1579867
8.0302721
7.9274365
7.9472617
7.9388803
7.960771
8.1503473
8.1694852
7.9468026
7.9307944
8.0530976
8.0993351
8.0615685
8.0534207
8.030335
8.1267159
7.9342683
7.890438
7.918052
8.0041815
7.9306513
7.9308007
7.9359955
8.0235916
8.026106
8.0231414
8.0279382
8.0021865
8.0022687
8.0059488
8.0417885
8.0247981
8.050131
8.0250922
8.0174987
8.0487738
8.0482962
8.0422078
8.0649439
8.0163386
8.2186593
8.0559003
8.0645168
8.1225996
8.1408762
8.0608922
7.9542582
7.9864711
8.0468112
8.0292262
8.0741742
8.0592134
7.9275335
7.9366218
7.9288378
7.9920767
7.988077
7.9453255
7.9441424
8.0132952
7.9936005
8.0239424
7.99491
8.0001566
8.0221718
8.0199038
7.9067597
7.9300743
8.1442813
8.0159718
8.0419807
8.1843717
7.9993905
8.0688746
8.0713904
8.0738261
8.0746375
7.9980319
7.9967073
8.0005343
7.9682891
8.0406289
8.0214142
7.9643874
8.2165387
8.1572879
7.9970399
8.0261423
7.9790672
8.0527101
7.9806316
8.0077285
7.9748559
8.0540539
8.0931225
8.0658485
8.0125822
7.9965214
7.9864489
8.0502921
8.0546303
7.9634524
8.051071
7.9693149
7.9642559
7.9625834
7.9618948
7.9776389
8.0158307
8.0085326
7.9696691
8.1087193
8.1112668
7.942048
8.0688434
7.9400109
7.9380665
8.0551808
7.9737059
7.9727069
7.9796242
8.1123581
8.0698618
7.9921378
7.9966901
8.0210091
8.1065187
8.1092544
7.9730313
7.977431
8.0997885
7.9718401
8.2226837
7.9555778
7.945338
8.0523282
7.9580941
8.0515488
7.9694847
7.99699
7.980871
8.0155015
8.3158988
7.9710014
7.9776588
8.0266017
7.9657487
8.0203124
7.9638345
8.0649702
7.9717402
7.9578735
7.9634092
8.1221998
8.1201223
8.1568367
8.1387955
8.1266364
8.1245535
8.1815342
8.0877447
7.9839527
8.1936539
7.9543379
7.9547885
7.9792074
7.985535
7.9726734
7.9548097
8.1323941
8.2184352
7.9828103
8.0260324
8.1705169
8.012399
8.1276745
7.9998169
8.0668891
8.0797299
8.1003423
8.0419009
8.1333781
8.0085453
8.075988
8.0685955
8.0357922
7.9568366
7.9741134
8.0738938
8.0575023
7.9822895
7.9957171
7.9655757
7.9885862
8.0351545
7.9868613
7.9571196
7.9629298
7.966227
7.9875098
8.1609913
8.0413788
8.0655485
8.0699047
8.0873254
8.0556981
8.04504
8.0463561
7.9378616
7.9399019
8.0805759
7.9512269
8.0759758
7.9663261
8.0634293
7.9558131
7.9875241
7.9661691
7.9354103
7.9211364
7.9667763
7.9446864
7.9426509
7.9412384
7.9596574
7.9380581
7.9678817
7.9494231
8.0661709
8.048009
8.0765285
8.0522939
8.1968799
8.0026474
7.9756486
8.0974702
8.1484561
7.9641
7.9459429
8.0405116
8.1279937
8.0981682
7.9233366
7.8957988
7.9209768
7.9807927
8.0145928
8.017982
8.0206115
8.0235615
7.9994792
8.1713695
8.067348
7.9647282
7.9662105
7.9370653
7.9764358
8.0175381
7.9866098
7.9409809
8.0169552
7.9814228
8.0320727
8.0162864
7.9189465
7.9406274
8.1440676
7.9983585
8.0345474
8.1535869
7.9948696
8.0137345
8.0016914
7.9789905
8.126581
8.1526746
7.9879867
8.0243777
8.0035878
8.0355755
8.0068408
8.0359024
7.9957289
8.0656605
7.995027
7.976156
8.0236381
8.0268034
7.9986068
8.1350805
8.1554354
7.9438542
8.0431658
7.9476543
7.9386353
8.0470433
7.9706569
7.9673524
7.9747467
8.1164372
7.9751606
7.9915873
7.9875387
8.0046164
8.0444524
7.9856236
7.9714368
7.9714071
8.1141588
7.9783538
7.9798552
7.9564283
7.9449848
8.0705753
7.9579819
8.0658306
7.9681124
8.0002655
8.1806414
8.0084301
8.331601
7.9884969
7.9820435
7.9856363
8.1545463
8.2470064
8.0593553
8.1327932
7.9555922
7.9751153
7.9693715
7.9523979
8.1288754
8.1790914
7.9822673
8.0323118
8.2141204
8.018106
8.1313557
7.9857811
8.0562438
8.0823365
8.0896064
8.0597738
8.1331898
7.9965065
7.991922
8.0110576
8.0411193
7.9750652
7.9709454
8.0257735
8.1027208
8.058471
8.0320612
7.9339699
7.9352442
8.1085595
7.9482759
8.1076017
7.9728289
8.0852397
7.9521551
7.9495156
8.1090875
8.011505
7.9193423
7.9409074
7.9301164
7.950061
8.1244014
8.1307766
7.9398219
7.9280508
8.0318736
8.0797084
8.0437716
8.0372321
8.0124567
8.0882461
7.9262007
7.8890934
7.9160469
7.9922558
7.9244421
7.9261138
7.9282643
7.991903
7.9928996
7.9912084
7.9936693
7.9767188
7.9802318
7.9795769
8.0102383
7.9985038
8.0161494
7.9973703
7.9917581
8.0153384
8.008809
8.0047472
8.0268674
8.0095176
8.1943158
8.0465678
8.0459614
8.1068092
8.1051545
8.0308643
7.9433982
7.9713854
8.0379162
8.0172494
8.0537498
8.0381472
7.9217916
7.9342885
7.9222132
7.9811905
7.9745168
7.9345398
7.942429
8.0003664
7.982481
8.0133264
7.9815053
7.9875081
7.9989105
8.0004929
7.9050528
7.9256707
8.1024937
8.0092031
8.0199006
8.1582244
7.9961378
8.0491366
8.0506097
8.0556742
8.0563115
7.9882069
7.9852807
7.9909718
7.9615753
8.0247548
8.0016522
7.9562574
8.1956661
8.1244238
7.9888072
8.0139162
7.9693283
8.0470464
7.9658751
7.9948161
7.9669146
8.0356782
8.0710561
8.0419738
8.0019834
7.9856678
7.9740666
8.031713
8.0362022
7.9573612
8.0354115
7.9618699
7.9564153
7.9561863
7.9542024
7.9711952
8.0025568
7.989745
7.9605598
8.0975002
8.0857377
7.9356065
8.0434722
7.9345129
7.9315198
8.0408266
7.964831
7.9636905
7.969637
8.0869176
8.0539518
7.9792975
7.9860058
8.0051144
8.0816771
8.089934
7.962613
7.9667354
8.071884
7.9629546
8.1831075
7.9480675
7.9400584
8.0319993
7.9513165
8.0368032
7.9605366
7.9850708
7.9717686
8.0015451
8.2449729
7.9617864
7.9678498
8.0077654
7.958884
8.0094954
7.9502138
8.0467188
7.9597154
7.9441924
7.9513818
8.0789392
8.0796588
8.1140043
8.1019725
8.0811295
8.0780941
8.131613
8.0493142
7.9759283
8.1525685
7.9446277
7.9448673
7.9718308
7.9739256
7.9653748
7.9415933
8.1113877
8.1938845
7.9762767
8.0158974
8.1444359
8.0055299
8.1036477
7.9915211
8.0574822
8.0702682
8.0866152
8.0373406
8.0861946
8.0004155
8.0619753
8.0550988
8.021573
7.9458618
7.9626757
8.0374282
8.0529578
7.9671519
7.9776126
7.9536138
7.9734475
8.0159482
7.9772033
7.9495037
7.9565703
7.9588005
7.9789757
8.1303381
8.02883
8.0362726
8.0380767
8.0639091
8.0362965
8.0164988
8.0119993
7.933445
7.9343728
8.0636109
7.948935
8.0554732
7.962564
8.0574542
7.9498169
7.9791771
7.9541556
7.9264457
7.9148987
7.9632051
7.9369491
7.9306917
7.929094
7.9507606
7.9288653
7.9613274
7.9390811
8.0281694
8.0186443
8.0555281
8.0267158
8.1544093
7.9868626
7.9675204
8.0748357
8.1066826
7.9567838
7.9410953
8.0184624
8.1053325
8.0533626
7.9176851
7.8941425
7.9188615
7.9666973
7.9851648
7.9869522
7.9899027
7.9909186
7.9953619
8.14601
8.0498185
7.9569212
7.9606383
7.928488
7.9625691
7.9924726
7.9777988
7.9361607
8.0072722
7.9648904
8.0055131
7.9986251
7.9144943
7.9359913
8.1090359
7.990219
8.0049188
8.1169892
7.9894428
7.9961896
7.9877196
7.974448
8.0999129
8.1288002
7.9794564
8.005026
8.0011598
8.0126553
7.9920141
8.0217742
7.9863475
8.0495828
7.9833023
7.9689013
8.004672
8.0080055
7.9922189
8.1063396
8.1307824
7.9383387
8.0252104
7.9423017
7.9329487
8.0333818
7.9602274
7.9582844
7.9642408
8.0884113
7.9686438
7.9770087
7.976982
7.9887924
8.0273505
7.9771971
7.9597933
7.96103
8.0788214
7.9669653
7.9710052
7.9472705
7.9392758
8.0436343
7.9502844
8.049155
7.9581771
7.9875076
8.1192257
7.9941567
8.256862
7.9750253
7.9712135
7.9726787
8.1039592
8.1990609
8.0249806
8.080925
7.9444642
7.9624923
7.9616591
7.9392523
8.1004187
8.1520975
7.9753745
8.0231385
8.185761
8.0122505
8.1075214
7.9734045
8.0445048
8.0688508
8.0724367
8.0551392
8.0878664
7.9822321
7.9883641
8.0011807
8.022906
7.9672322
7.9638019
8.0092861
8.0806435
8.0313086
8.0068044
7.9284134
7.9288061
8.0854263
7.945466
8.0771358
7.9695752
8.078946
7.9452508
7.9364259
8.0631809
7.9924498
7.9113452
7.934124
7.9214247
7.9392527
8.0962729
8.0916017
7.9324636
7.9246332
8.0101589
8.0578835
8.0247254
8.0196062
7.9940727
8.0509781
7.9181637
7.8875237
7.9136533
7.9793922
7.918032
7.9209956
7.9204629
7.9636383
7.963445
7.9627606
7.9633927
7.9536756
7.9596582
7.9557515
7.9813579
7.9740526
7.9852054
7.9718902
7.9680374
7.9848516
7.9741714
7.9717181
7.9925166
8.0011042
8.1656248
8.0349413
8.026002
8.0881922
8.0693948
8.0023307
7.9327302
7.9565208
8.0270417
8.0037655
8.0320567
8.0163748
7.9158003
7.9312524
7.9154265
7.9694623
7.9608374
7.9239527
7.9399612
7.9864649
7.970547
8.0010699
7.9676628
7.9743403
7.9771162
7.981494
7.9030025
7.9207598
8.0623877
8.0007732
7.9978583
8.1285703
7.9916064
8.0283652
8.0289385
8.0358324
8.0363624
7.9772407
7.9730397
7.9801823
7.954034
8.0076232
7.9821208
7.9475657
8.1707331
8.0901551
7.9792211
8.0001973
7.9589777
8.0392543
7.9513486
7.9809891
7.9580549
8.0164146
8.0475108
8.0182045
7.9900105
7.973918
7.9613106
8.0122092
8.0166587
7.9503475
8.018203
7.9535984
7.9479307
7.9489572
7.9459062
7.9636444
7.9882472
7.9713077
7.9508929
8.0831481
8.0587587
7.9287022
8.018103
7.9284741
7.9246269
8.0245817
7.955276
7.9539713
7.9589838
8.0600234
8.0359051
7.9659571
7.9743831
7.9885582
8.0558549
8.0678102
7.951746
7.9555488
8.043443
7.9533596
8.1417977
7.9400074
7.9341403
8.0110542
7.9438352
8.0204379
7.9510112
7.9723961
7.961785
7.9867109
8.1777328
7.9519791
7.9573764
7.9887684
7.9511203
7.9972365
7.9370181
8.0259448
7.9476048
7.9310414
7.9394973
8.0385822
8.0411999
8.0724382
8.0657346
8.0389391
8.035472
8.0839011
8.0137746
7.9667625
8.110593
7.934807
7.9348909
7.963397
7.9617239
7.9571606
7.9288935
8.0884871
8.165977
7.9684858
8.0040213
8.1151847
7.997102
8.0776868
7.9820342
8.0459722
8.0580892
8.0702162
8.03128
8.0425399
7.9907411
8.0455613
8.0392512
8.0059573
7.9350315
7.9511083
8.0036574
8.0467023
7.9523868
7.9601953
7.9416663
7.9584393
7.9963799
7.9666563
7.9414148
7.9493832
7.9506212
7.9694082
8.0977591
8.0144673
8.0080846
8.0077904
8.0395432
8.015887
7.9894474
7.9807917
7.928394
7.9283017
8.0445147
7.9457956
8.0336307
7.9576631
8.0493216
7.9430631
7.9699063
7.942142
7.9175195
7.9085332
7.9584906
7.9289257
7.9192478
7.9175257
7.9414658
7.9197528
7.9538226
7.9288461
7.9936416
7.9909341
8.033315
8.0016744
8.1115962
7.9709472
7.9584966
8.0509225
8.0660817
7.9488052
7.9356559
7.9964853
8.0802512
8.0128801
7.9118315
7.8922412
7.9162022
7.9527659
7.9588354
7.9593265
7.9624564
7.961943
7.9897696
8.1173557
8.0307679
7.9484602
7.9540689
7.9199448
7.9488359
7.9690644
7.968221
7.9306934
7.996067
7.9493365
7.9809293
7.9807951
7.9097512
7.9307012
8.0736261
7.9809053
7.9777603
8.079987
7.9824337
7.9786034
7.9732797
7.9684711
8.0715005
8.1019059
7.9699527
7.9856842
7.9976318
7.9903099
7.976696
8.0062829
7.9758033
8.0316587
7.9708376
7.9607464
7.9857542
7.9890264
7.9843114
8.0760816
8.1032461
7.9322005
8.0064833
7.9362673
7.9267656
8.0179503
7.9494214
7.9486378
7.9533282
8.0593525
7.9610435
7.9622934
7.9656821
7.972761
8.009435
7.9677792
7.947978
7.9502229
8.0443072
7.9551614
7.9613952
7.9378361
7.9330056
8.0170027
7.9420123
8.0308381
7.9479105
7.9740581
8.0642693
7.9792291
8.186342
7.9612938
7.9598081
7.9594396
8.0574574
8.1509039
7.993671
8.0342489
7.9334695
7.9497324
7.9531648
7.9267266
8.0712453
8.1227002
7.9672988
8.012011
8.1534834
8.0048463
8.0815605
7.9606381
8.0306563
8.0527235
8.0530718
8.0490597
8.0455162
7.9676832
7.9834413
7.9898539
8.0040451
7.9585125
7.9557783
7.9921557
8.0568411
8.0048634
7.9826224
7.9224281
7.9220306
8.0604865
7.9418713
8.0465466
7.9652382
8.0704379
7.9377718
7.9240314
8.0258222
7.9759508
7.9043577
7.9280716
7.9138066
7.9298078
8.0709395
8.0582981
7.9258991
7.9213435
7.9914276
8.0380903
8.0076745
8.0037052
7.9781002
8.0199679
7.9110661
7.8859689
7.9114585
7.9679549
7.9123118
7.9163186
7.9135834
7.940884
7.9399136
7.939909
7.9393292
7.9348346
7.9425517
7.9363076
7.957878
7.9539105
7.9601827
7.9510157
7.9485353
7.9601781
7.9469184
7.9455831
7.965061
7.9927148
8.1381319
8.0233625
8.0082795
8.0702888
8.0390067
7.9787235
7.9235034
7.9438108
8.0162883
7.9913295