/*--------------------------------*- C++ -*----------------------------------*\
  =========                 |
  \\      /  F ield         | OpenFOAM: The Open Source CFD Toolbox
   \\    /   O peration     | Website:  https://openfoam.org
    \\  /    A nd           | Version:  8
     \\/     M anipulation  |
\*---------------------------------------------------------------------------*/
FoamFile
{
    version     2.0;
    format      ascii;
    class       volScalarField;
    location    "7200/air";
    object      alphat;
}
// * * * * * * * * * * * * * * * * * * * * * * * * * * * * * * * * * * * * * //

dimensions      [1 -1 -1 0 0 0 0];

internalField   nonuniform List<scalar> 
167754
(
0.39028551
0.38493749
0.3585157
0.31744218
0.26949366
0.22236241
0.18229293
0.15269987
0.13363382
0.1227667
0.1173147
0.11537653
0.11653673
0.12200801
0.13531322
0.161624
0.20507864
0.26509321
0.33534356
0.40593248
0.46846256
0.51916371
0.55519799
0.5782628
0.59096878
0.58825727
0.56162039
0.51106514
0.4431559
0.3789179
0.31918009
0.26625048
0.22191563
0.186568
0.15964036
0.13998686
0.12628521
0.11715822
0.11135432
0.10786218
0.10596033
0.10516543
0.10524418
0.10637581
0.11049609
0.12359553
0.15756553
0.22405855
0.32132471
0.4367233
0.55764375
0.67524601
0.78444375
0.88210784
0.9655436
1.0316614
1.0766162
1.0955546
1.0832807
1.0471694
1.037345
0.98549611
0.90090812
0.79272686
0.67125825
0.54781092
0.43402445
0.34030735
0.27339359
0.23495392
0.22374065
0.23976759
0.28670987
0.36882041
0.48513796
0.6257767
0.77420524
0.91439071
1.0379301
1.1453031
1.2386097
1.3140495
1.375826
1.4351667
1.4729197
1.4572579
1.3802341
1.2491374
1.1098797
0.97544745
0.84994453
0.73544203
0.63170101
0.53826756
0.45578914
0.38527388
0.32729091
0.28135497
0.24606898
0.21973717
0.20095138
0.18939478
0.18780587
0.20948087
0.2867959
0.44115748
0.65499618
0.88955796
1.1156661
1.3223453
1.5044652
1.6611909
1.7942213
1.90416
1.9896315
2.0471941
2.0712186
2.0543352
1.7662594
1.7539699
1.6919325
1.5895826
1.4551657
1.2974133
1.1260847
0.95268853
0.79113848
0.65749922
0.56818475
0.53641583
0.56794627
0.65907836
0.79740506
0.96388839
1.1381146
1.3054768
1.4617916
1.6106414
1.7507511
1.8849862
2.0102786
2.1232574
2.2620421
2.3973632
2.4301518
2.3219242
2.106766
1.888297
1.692518
1.5166212
1.3601715
1.2186545
1.0889846
0.96942145
0.85930446
0.75890495
0.6692818
0.59196894
0.52845419
0.48026548
0.45093971
0.45186347
0.51223394
0.67288549
0.93608783
1.2499932
1.5584947
1.8321877
2.0644866
2.2586335
2.421058
2.557367
2.6702063
2.758739
2.8189835
2.8442198
2.8258046
2.385228
2.3710777
2.3058481
2.1991657
2.0589202
1.8931045
1.7101358
1.5199145
1.3354004
1.1736994
1.0554825
1.0013595
1.0218122
1.1088064
1.2407056
1.3942901
1.5544625
1.7179972
1.8784399
2.0559641
1.0038876
1.0892328
2.8491791
3.0109776
3.2423656
3.4581152
3.4028194
3.1676834
2.8564551
2.5399405
2.2597878
2.0190286
1.8433823
1.6831408
1.5370833
1.4051368
1.2869082
1.1807936
1.085204
1.0000202
0.92789551
0.87376179
0.84663536
0.86594477
0.96592327
1.1767903
1.4825025
1.8234093
2.1443235
2.4190911
2.644899
2.8294228
2.9826558
3.1123183
3.221814
3.309906
3.3714539
3.3983868
3.380933
2.8699242
2.8534062
2.7865194
2.6792246
2.5395579
2.3754991
2.1950738
2.0074505
1.8248989
1.6632044
1.5382001
1.4659442
1.4580041
1.5100975
1.6058372
1.7310821
1.8815502
2.0594805
1.0276392
1.1085522
1.181926
1.4146702
1.7214808
4.2316001
1.9720331
4.386966
4.2088422
3.9871623
3.6279965
3.2608383
2.9371015
2.609448
2.3106739
2.0615542
1.8598847
1.716173
1.5928104
1.4841005
1.3920406
1.3154129
1.2564735
1.2204628
1.2171159
1.2658753
1.3962447
1.6273757
1.9378685
2.2729528
2.5826894
2.8432776
3.0532465
3.2222398
3.3623209
3.4827082
3.5873159
3.6743664
3.7374405
3.7669851
3.7521067
3.2306748
3.210814
3.1419503
3.0342656
2.8960782
2.7354777
2.5602379
2.3790323
2.2050401
2.0550764
1.9361069
1.8525122
1.8174161
1.8348705
1.901797
2.0248341
2.228581
1.1135134
1.1537688
1.1577386
0.50733748
0.25361076
2.2256624
2.3011248
2.1325646
2.1134484
2.0982209
2.0597416
4.6233104
4.3018559
3.9274046
3.4494317
3.0015527
2.6125659
2.2850953
2.0322863
1.8427285
1.706917
1.6094013
1.5296908
1.4763733
1.4572023
1.4789052
1.5561414
1.7108663
1.9534928
2.2609397
2.5844429
2.8795554
3.1243289
3.317734
3.4704931
3.596351
3.7061511
3.8046727
3.8899015
3.9543477
3.9868974
3.9755815
3.4864914
3.4623919
3.3910121
3.2824732
3.1453373
2.987552
2.8160602
2.6390796
2.4760181
2.3455253
2.2378976
2.1552829
2.1062698
2.1096359
2.1860051
2.3778723
1.1662389
1.1800154
0.56509823
0.21021271
0.712027
2.4915062
2.2541924
0.69542799
0.89871813
2.0321023
2.1735571
2.1548343
2.1060107
2.0010536
4.3490668
3.9361907
3.398259
2.9307224
2.5226077
2.201348
1.9710372
1.8081181
1.6925653
1.6293039
1.6091536
1.6411766
1.7361487
1.9076254
2.1588602
2.464425
2.7789403
3.0621108
3.2933078
3.4716514
3.6086471
3.7196471
3.8173738
3.908004
3.9898226
4.05457
4.0897569
4.0827247
3.6561299
3.6267126
3.5522472
3.4426022
3.3060723
3.1500326
2.9806828
2.8071369
2.6540991
1.1643573
2.4819671
2.4087288
2.3639308
2.3956329
2.5556492
1.2565673
1.2085511
0.35670035
2.4679989
2.6924183
0.91094476
0.59812847
1.012135
1.998894
2.0944246
2.0548859
1.981493
4.1341602
3.747175
3.256106
2.777404
2.394074
2.0957474
1.88036
1.7599882
1.7188184
1.7439596
1.8372512
2.0130523
2.2695574
2.5751157
2.8840909
3.1585416
3.3785893
3.5434991
3.6654039
3.7610314
3.8450635
3.9255847
4.0018306
4.0652555
4.1026853
4.102794
3.7615319
3.7230953
3.6430524
3.5314067
3.3948703
3.2393739
3.0688775
2.8934917
1.2710897
1.1600389
1.2562141
1.2401032
2.6482267
2.726839
2.9852056
1.4268545
0.61467076
2.8392404
2.7468797
0.37727188
0.62761509
1.0224751
1.8820276
1.9357369
1.9025375
1.7838662
3.4733721
3.0184377
2.5478658
2.1555638
1.9143948
1.8144376
1.8157529
1.8977947
2.0610083
2.3118782
2.614909
2.9209238
3.1903329
3.4018761
3.5548955
3.6626774
3.7428922
3.8120272
3.8805117
3.9491177
4.0100494
4.0536264
4.0611625
3.8156941
3.7698309
3.6830568
3.5642352
3.4253448
3.26775
3.0994118
2.925454
1.2110181
0.5437557
0.45609988
1.2057914
1.3144752
1.3762153
1.5019824
1.6182372
0.48719845
0.82140709
3.038149
1.1671991
0.73654632
0.93395178
1.7301733
1.787676
1.702704
1.5304741
2.5016248
2.0812694
1.8905768
1.86037
1.9371405
2.087448
2.3158203
2.6060213
2.9040047
3.1691107
3.3745161
3.5184126
3.61458
3.6807317
3.7349352
3.7906205
3.8511836
3.9133455
3.9600112
3.972549
3.8279713
3.7745398
3.6827894
3.5593843
3.4138273
3.2568077
3.1037869
1.3809292
1.1211845
0.24781362
0.51916219
1.4636659
1.7062192
1.7922979
2.9754033
3.0800577
0.45918882
0.65049974
0.81047855
1.5027448
1.3506513
1.1649475
1.8271403
1.8499768
1.0464608
2.1036642
2.3145634
2.5823641
2.8567555
3.1057281
3.3048475
3.4394884
3.5268827
3.5818926
3.6235387
3.6685476
3.7255479
3.7882255
3.8363903
3.8530903
3.8110914
3.7488075
3.6510734
3.522593
3.3714305
3.2079775
1.4344508
1.2386374
0.46416684
0.28192765
0.81857981
0.81367855
3.291444
1.3462222
0.49507012
0.55675385
0.95340348
0.98861744
1.0033769
1.1336164
1.1862495
1.2778405
2.7825955
3.0318677
3.2207905
3.3367127
3.4110822
3.4560234
3.4863683
3.5262411
3.582572
3.646333
3.6970025
3.7176407
3.7796644
3.7058993
3.59856
3.4602747
3.3027208
3.1310748
1.3011754
1.061625
0.502366
0.96253225
3.3348874
0.81387526
0.46517285
0.8338559
0.32901361
0.44630856
0.55934277
1.0875497
1.3333807
1.4491457
1.5220417
3.1994298
3.2799965
3.3215957
3.3376146
3.3695839
3.4271071
3.4977764
3.5545379
3.5794803
3.7499115
3.6613467
3.5395542
3.3852784
3.2076032
1.4428126
1.1812
0.42221656
0.43074667
3.4345381
1.4376111
0.74776821
0.4498783
0.14358951
0.54681587
1.1500092
1.2609037
1.4568864
1.5180225
1.5334785
3.1318653
3.1952398
3.2684029
3.3531831
3.4209837
3.450721
3.740005
3.6330723
3.4898389
3.312451
3.0943999
1.2644019
0.55700779
3.220613
3.5418449
1.060679
0.12642351
0.70806482
0.28863573
0.34570166
0.50424132
1.1260167
1.2261899
1.3824528
1.4448234
3.1040363
3.2299614
3.3099021
3.3426245
3.7705316
3.6437183
3.4739678
3.2596389
1.4299647
1.1255966
0.36156683
0.87094586
3.2618651
1.4457205
0.29949153
0.73681958
0.09908908
0.26161942
0.50887092
1.0673891
1.4202118
3.1519559
3.2331477
3.2644673
3.861901
3.7169131
3.5253754
3.2627911
1.2660352
0.52316849
2.820499
3.0463337
1.0955396
0.66677543
0.36916975
0.41983664
1.3132268
3.1531348
3.2044768
3.2223949
4.0310204
3.8798961
3.7034648
1.5737045
1.2333794
0.32769694
0.88400141
2.752592
2.6108799
0.12399427
0.72250268
0.30906613
0.51296974
1.4463832
3.2044004
3.2146399
3.2151184
4.2844618
4.1388316
3.9903104
1.6454503
1.4451012
0.33509763
2.4608014
2.541186
0.89493408
0.30407323
0.78515961
0.099711774
0.5468348
1.5268501
3.2757292
3.2564544
3.2383373
4.6118007
4.4706123
4.3299343
1.8065713
1.7407047
0.43380632
2.1036405
2.3951192
2.2017193
0.293375
0.65575094
0.39255521
1.344204
3.3851948
3.3600977
3.3285595
3.2927239
4.9877713
4.8440747
4.6858882
4.6056769
1.9637909
0.72650402
0.53961285
2.2609109
2.2236989
0.78811556
0.11769696
0.69615881
0.31076367
1.4702028
3.50918
3.4627371
3.4260133
3.3796702
5.3716181
5.2065047
5.0248487
4.8986334
2.1395941
1.808726
2.0296367
2.2641961
2.089598
0.43128703
0.25253718
0.80034566
0.35181159
1.6380713
3.669103
3.5988759
3.5534347
3.5019688
5.717552
5.504953
5.2974353
5.1326317
2.2120621
2.0759974
0.24677746
0.67155032
2.2191835
2.2262614
2.0909285
1.6482162
1.4501826
1.5170307
1.5187283
1.3890518
1.186573
0.98133259
0.80995933
0.74629221
0.73490204
0.72042379
0.70282666
0.67913655
0.6617433
0.79948036
0.81710756
0.72813697
0.6813609
0.69325146
0.75431004
0.87755984
0.99529828
1.1022354
0.42486681
1.8069218
3.8605018
3.7659578
3.7114743
3.6598225
5.9635798
5.6982009
5.4714725
5.2731354
5.1509128
2.236789
0.65475533
2.0880796
2.2666956
2.1750907
1.0118358
1.776565
0.76961853
0.80697083
0.77717369
0.65328114
0.53552103
0.44891908
0.37916557
0.32314625
0.3573377
0.36657702
0.37988924
0.37946492
0.40789896
0.48315033
0.52638751
0.48183007
0.43157996
0.49798754
0.61774095
0.73130678
1.3341862
1.1729352
0.41060025
0.36293282
1.9491812
4.0684704
3.9543531
3.8951503
3.8486944
6.0720715
5.7800542
5.5382275
5.3352557
5.2080925
2.3316928
0.89771071
0.76379302
2.3071007
2.3033362
2.1459634
1.0498341
0.89149383
1.7062989
1.5442295
0.69567275
0.17575793
0.39824957
0.182357
0.32237687
0.3951326
0.2921057
0.8943615
1.1875759
1.2078399
1.0894956
0.40698927
0.54101849
2.0548612
4.2677119
4.1503125
4.0940049
4.0583314
6.0720745
5.7721132
5.5227681
5.3217928
5.206194
2.3645896
2.0626822
0.36547529
2.2298388
2.4944058
2.4144143
2.1301599
0.64022362
0.51202059
0.58470095
0.31034194
0.23574617
0.16470193
0.13792226
0.21361304
0.28066473
0.29059938
0.30351575
0.3152089
0.30092689
0.29091539
0.27446705
0.56693934
0.77548091
0.35719768
0.38776465
0.66217709
0.72262574
0.79874046
1.9843969
0.97413222
0.40487476
0.70654488
2.0851158
4.4240135
4.3355692
4.2914331
4.2714944
5.9437035
5.6579625
5.4220249
5.2397718
5.1386076
2.3071795
2.1913675
0.43049447
1.9803445
2.4689573
1.3053998
1.3110531
1.171215
1.0247188
1.6760697
0.56304915
0.49619595
0.77757068
0.85900995
0.8723111
0.85448668
0.818276
0.77325934
0.72638718
0.69296547
0.51105257
0.79092277
0.38687413
0.33878176
0.79229613
1.8388805
1.6637651
0.90706893
0.89533734
0.33411579
0.77099261
2.0855909
4.5471949
4.4944229
4.4678109
4.4660858
5.6857891
5.4382727
5.237883
5.0932342
5.0174826
5.0316968
2.2997876
0.88859106
0.57558997
2.3060999
2.7540598
1.3784576
1.3332256
1.0207583
0.88799288
0.80081081
0.61390901
0.72318735
0.80100064
1.7256235
1.5771363
1.4333702
1.3007791
1.1789192
1.0655592
0.9604015
0.86773134
0.79794493
0.76369904
0.70577575
0.2742126
1.0579897
1.1529482
1.0417298
0.84368059
0.89954531
0.21141489
2.0097549
4.6770546
4.6230334
4.6142627
4.6075764
4.6221314
5.3168953
5.1230228
4.9737779
4.8783921
4.8459056
4.8789918
4.9730115
2.275889
1.8616717
0.57161417
1.9599736
2.4303868
1.2887672
1.3038102
1.1716433
1.9419445
1.9483402
4.0373749
3.6944783
3.3784539
3.0832485
2.8055799
2.5420991
2.2877429
2.0394654
1.8075912
0.82896652
0.68523177
0.29718245
1.3712608
1.6062646
1.2778217
1.1251395
1.0475168
0.31315742
2.0481275
4.6863314
4.6664473
4.6852623
4.7013817
4.7301846
4.8708569
4.7349134
4.6441167
4.6029618
4.6110677
4.6627249
4.7289135
4.7250107
2.1373827
1.8835737
5.0715495
5.5583414
2.6889456
2.633304
1.2623455
0.69461338
2.0944926
4.4686343
4.0897679
3.7542307
3.4459207
3.158627
2.8876667
2.6261671
2.3702229
2.119524
1.8802172
0.85451264
0.68643972
0.33483896
1.6357855
0.90968945
1.5857488
1.2863622
1.282533
1.2463539
0.54874141
0.23521131
2.0456595
4.6628178
4.6763613
4.7195304
4.7569705
4.7978004
4.3898084
4.3078665
4.2764157
4.2914385
4.3440581
4.422673
4.5069293
4.5506279
4.5606222
4.7413604
2.4591731
2.5975837
2.5489488
2.5987027
1.2786345
2.0535944
4.7111266
4.3753346
4.0479187
3.7429179
3.4561232
3.1791476
2.9166875
2.6642071
2.4179145
2.1795501
1.9546889
0.8940111
0.70533957
0.35294906
0.81581572
0.93729132
0.77675354
0.66896034
0.64621917
0.69695631
1.3563129
1.3703121
1.2910692
0.51792506
0.20784356
0.36657798
2.0052843
4.6012954
4.644374
4.7107635
4.7670947
4.8166812
3.9119207
3.8765861
3.9008606
3.9705199
4.0706012
4.1852626
4.2980342
4.3884133
4.4715653
2.2691845
2.2681388
1.2563467
2.4522775
2.5195759
1.2291812
2.0362011
4.5195286
4.2314607
3.9460694
3.6745002
3.4099726
3.1490697
2.8974215
2.6567823
2.4238955
2.2015386
2.0003558
0.94073161
0.75072292
0.33102877
0.84442932
1.8418397
1.1511697
0.341154
0.20643067
0.60883146
0.68172431
1.4920573
1.4487359
1.3339954
0.45252684
0.18511471
0.42191222
1.9333181
4.488576
4.5696592
4.6604197
4.7347538
4.7908106
3.4612905
3.4682379
3.5418349
3.6608736
3.8061703
3.9594231
4.1045618
4.23071
4.3441271
2.0608165
2.1773496
1.1791019
1.1594015
2.538184
1.1819146
1.9437879
4.2996562
4.0511041
3.8022392
3.5580969
3.3122757
3.0630026
2.8205682
2.5874142
2.3650573
2.1552936
1.9694894
0.95965052
0.80390474
0.31733595
0.28647263
0.68471833
0.6657089
0.85101442
0.20368213
0.17989673
0.57442093
0.61457903
1.4908957
1.489618
1.4580731
0.45201647
0.16001548
0.5362352
1.8299718
4.32555
4.4613676
4.5773835
4.6689534
4.7297679
3.0670728
3.1041806
3.2161611
3.3750401
3.5611152
3.7500552
3.926953
4.0844431
4.2282149
2.0188671
2.1341868
1.0781817
2.0618579
1.1698307
1.0702406
1.7840694
4.007403
3.8047067
3.5849316
3.3578848
3.122418
2.8814736
2.6361831
2.4028152
2.1836625
1.9751014
1.7828051
0.89771477
0.70740494
0.34640614
0.32838573
0.54733897
0.9885883
0.39270179
0.17098939
0.46360576
0.52387792
1.482685
1.255595
1.331648
3.8225903
4.1325555
4.3337781
4.4750909
4.581632
4.6457991
2.7534543
2.8096651
2.93941
3.1261841
3.3391682
3.5553175
3.7632478
3.9460362
4.1102998
4.348055
2.0850417
0.98561356
0.93841626
2.0939402
0.98860226
1.5390399
1.7180274
1.699158
1.6340997
1.5468135
1.4394199
1.3066337
1.1422484
0.96355829
0.80492149
0.67903179
0.58897063
0.5511769
0.57484474
0.39162842
0.43924102
0.51617525
0.72343765
0.15123408
0.47519728
1.1932502
3.6442705
3.9794179
4.2064716
4.3680252
4.4848417
4.5504097
2.5009836
2.5750032
2.7171947
2.9166892
3.1482843
3.3815927
3.6033458
3.8062695
3.9887901
4.1932522
2.0128085
1.96752
0.9583248
2.0454311
2.0991464
1.9510171
1.8803836
1.8189516
1.7661174
1.7214397
0.95460703
1.0222747
0.96392169
0.8578435
0.68448828
0.47704288
0.31268871
0.28721443
0.27811745
0.22366892
0.19853613
0.27835056
0.46179792
0.40346999
0.59274853
0.95856691
0.35157286
0.49771885
1.2830641
3.5938198
3.8847629
4.1024742
4.2680826
4.3875133
4.451731
2.2931899
2.3875316
2.5389186
2.7436711
2.9848714
3.2255406
3.4528352
3.658123
3.8482263
4.0221428
1.9251305
1.9234794
0.94866026
0.96714001
1.0861861
1.992219
1.9421269
1.8870265
1.8132395
1.7272981
0.87659962
1.1215765
0.86925121
0.67525957
0.50914487
0.28855931
0.22540699
0.31079519
0.28502872
0.21078933
0.19780539
0.20312791
0.36743663
0.42536715
0.59227914
0.44384413
1.1626971
3.2424567
3.5807506
3.821894
4.0159703
4.1746194
4.291653
4.3527378
2.1224533
2.23206
2.3947289
2.6014915
2.8440509
3.0837923
3.3079489
3.5087819
3.6876965
3.8375416
1.8402139
1.8512782
0.86937112
0.90963165
0.95254904
1.8766831
1.7796292
1.7678657
1.6920862
1.6161588
0.85202975
0.5305361
0.39439546
0.25794182
0.22044823
0.30032126
0.38777347
0.2983011
0.15128359
0.096203872
0.11047825
0.21742208
0.72143208
0.90004923
0.85543134
0.26575314
0.4306103
1.2945494
3.2907443
3.5558909
3.7556035
3.9315852
4.0817801
4.195149
4.2526958
1.9811208
2.1032085
2.276238
2.4832553
2.7206145
2.9529187
3.1677157
3.3580001
3.5200319
3.643119
3.7248595
1.7676611
1.6462388
1.7934537
0.86716631
0.80662332
1.6215909
1.6168587
0.85413474
0.86364236
0.78925996
0.50545053
0.31420565
0.24133382
0.53061205
0.44678186
0.5404126
0.33223597
0.20283984
0.17472694
0.18656794
0.64765597
0.45067641
1.037858
0.3347137
0.2081384
1.1339983
2.9754873
3.2840475
3.500459
3.6784618
3.8429046
3.9859794
4.0954201
4.1494168
1.8623452
1.9956111
2.1764981
2.3816982
2.6098884
2.8304549
3.0319307
3.2074054
3.3493455
3.4431361
3.4696028
1.6233137
1.4227688
1.7474047
1.516621
1.3522918
1.284157
1.2395406
1.3087319
1.2914095
1.1979607
1.0711549
0.90920342
0.76106435
0.67840657
0.57009392
0.52734509
0.59256113
0.61941389
0.59235592
0.42480965
0.66864031
0.78573359
0.75719046
0.18725531
0.9575525
2.6532696
2.9987978
3.240827
3.4276735
3.5939119
3.749696
3.8860147
3.9903307
4.040336
1.7607102
1.9038325
2.0900931
2.2917533
2.5084023
2.71505
2.9018121
3.0622998
3.1878893
3.262222
3.2327202
1.4407671
0.60316658
0.46212179
0.34295868
0.27288431
0.2430948
0.2372841
0.24270552
0.24473796
0.24885057
0.25325442
0.24460842
0.20828266
0.15520117
0.086842868
0.099881403
0.14887307
0.10544355
0.091118423
0.12989933
0.6944979
0.75596654
0.71954589
0.30939078
0.31560413
1.10803
2.7164198
2.9780619
3.1773775
3.3475363
3.5050333
3.6524482
3.7809467
3.8782248
3.9236231
1.6722971
1.8235691
2.0129918
2.2098953
2.4138301
2.6060851
2.7786099
2.9270041
3.0448661
3.1197902
3.1132603
1.4241723
0.66387411
0.21901084
0.59690155
0.56277874
0.5989266
0.64957367
0.64169002
0.20503899
0.94954603
2.4385314
2.7246672
2.9329726
3.1069075
3.2643904
3.412994
3.5513304
3.6705538
3.7591474
3.7992694
1.5945505
1.7517822
1.9422934
2.1336013
2.3245651
2.5028697
2.6617775
2.7991165
2.9110566
2.9892045
3.0018906
1.4290576
1.0550726
0.10222428
0.50073874
0.44907565
0.20979513
0.31395164
0.61820273
0.65965228
0.31997397
0.370584
1.0787673
2.4877949
2.7056742
2.8778814
3.0340062
3.179779
3.3188299
3.4472175
3.5561846
3.6352581
3.669755
1.5258938
1.6865124
1.876126
2.0612564
2.2396317
2.4047265
2.5506008
2.6766143
2.780693
2.8586397
2.8725531
1.3903354
1.1292971
0.25077639
0.47970438
0.51853141
0.21939196
0.17847263
0.33102396
0.61384004
0.64663515
0.27166487
0.95248828
2.2683836
2.498395
2.6701577
2.8195782
2.9600867
3.0947629
3.2238812
3.3419316
3.4405669
3.5104034
3.5396868
1.4654115
1.6266218
1.8134532
1.9921026
2.1589105
2.3118784
2.4457174
2.5609414
2.6566649
2.7312811
2.7532309
2.5490112
1.1580792
0.41658467
0.26206571
0.5145665
0.48166994
0.1450947
0.2790684
0.55740511
0.63093837
0.56202791
0.22245247
0.41736657
1.0633785
2.3193593
2.4893022
2.6282761
2.7595179
2.8863313
3.010503
3.1297372
3.2378195
3.3268996
3.3884922
3.4133925
1.4126872
1.5716359
1.753932
1.925978
2.0828135
2.2250212
2.3484069
2.4542517
2.5423755
2.6120046
2.6398372
2.5037765
1.1703929
0.51218856
0.1030302
0.6725821
0.56574466
0.24884361
0.28799722
0.58792798
0.59458996
0.33888778
0.11955279
0.19798906
0.97129749
2.1675749
2.3387512
2.4669438
2.5835965
2.6987512
2.8136255
2.92805
3.0379935
3.1370519
3.2177415
3.2723159
3.2935823
1.3676896
1.5215978
1.69775
1.8632649
2.0119013
2.1447523
2.2597107
2.3583833
2.4412863
2.5079248
2.5436082
2.4564763
1.1759004
0.90653341
0.60632138
0.77089097
0.6019895
0.11384368
0.13036184
0.30903656
0.57889082
0.59364697
0.32963491
0.87548186
2.059018
2.2257338
2.3388366
2.4374455
2.5363689
2.6380105
2.7426648
2.8482576
2.9498637
3.0410474
3.1145909
3.1634263
3.1816221
1.3306663
1.4769733
1.6454066
1.8044276
1.9464305
2.0716629
2.180517
2.2745593
2.3550741
2.422026
2.4686802
2.4234861
1.1787501
0.99150855
0.29275107
0.22454229
0.59698818
0.70322033
0.2752426
0.23784458
0.70524052
1.006989
2.0104031
2.1416142
2.2416815
2.3217348
2.4017683
2.4868402
2.5778172
2.6738199
2.7716045
2.8659164
2.9503582
3.017988
3.0624026
3.0784113
1.3023661
1.4387285
1.5978993
1.7501667
1.8867083
2.006442
2.111375
2.2030509
2.2836024
2.3541595
2.4146572
2.4151865
2.3492885
1.0931881
0.85721053
0.15227758
0.46122842
0.58452235
0.58713721
0.98359949
2.0257486
2.1449976
2.2237115
2.2909581
2.3604262
2.4358092
2.5185387
2.6071935
2.6981365
2.7861182
2.8648489
2.9276976
2.9688918
2.9837377
1.2835878
1.407916
1.5564201
1.7015038
1.8334671
1.9495926
2.0522812
2.1431672
2.2249623
2.299806
2.3712704
2.4032377
2.377771
2.3548744
1.0826729
0.9798373
0.29318949
0.40404748
0.49727499
0.5368019
0.21670872
0.37997562
0.97850548
2.0098971
2.1197771
2.191975
2.2539358
2.3160988
2.3844578
2.4604559
2.5426914
2.6275732
2.7100244
2.7838854
2.8428669
2.8817451
2.896217
1.2755518
1.3861646
1.5224504
1.6597403
1.7877224
1.9016799
2.0030133
2.0936617
2.1767543
2.2552252
2.3334265
2.3834766
2.384484
2.3942916
2.4802507
2.5797091
1.1648915
0.77153823
0.089702696
0.20450148
0.47610835
0.49681737
0.26572477
0.85504338
1.8477847
1.9985471
2.0928606
2.1589435
2.2149386
2.271214
2.3336303
2.4036791
2.4800634
2.5594423
2.6369386
2.7064965
2.7621974
2.7993093
2.8141077
1.279157
1.3751743
1.4978821
1.6265471
1.7504516
1.8627763
1.9627542
2.0528219
2.1364838
2.2172628
2.2981177
2.3558935
2.3780224
2.4106387
2.4978427
2.6067285
2.6708016
1.0601329
0.88494555
0.26386585
0.69029103
0.56468796
0.46205236
0.17838313
0.39569418
0.93291637
1.87346
1.9875332
2.0660194
2.1252896
2.1754087
2.2264845
2.2835619
2.3480505
2.4189256
2.4931442
2.5660227
2.6315842
2.6843815
2.720264
2.7360954
1.294588
1.3762111
1.4844636
1.6034585
1.722463
1.8326573
1.9304147
2.0188466
2.1018828
2.1826993
2.2635979
2.3251287
2.3625012
2.4159663
2.5196707
2.6631286
2.7872974
2.8472257
2.787608
1.0888031
0.91839339
0.16887035
0.92132059
1.9947612
0.69286337
0.25427573
0.18741212
0.84812378
1.7295888
1.8773389
1.9691528
2.0373677
2.0901661
2.1353819
2.1819682
2.2340935
2.2932872
2.3588484
2.42807
2.4965189
2.5583311
2.6088294
2.6440857
2.6616128
1.3210095
1.3894452
1.4832534
1.5915612
1.7040264
1.8100738
1.9043142
1.9897172
2.0708891
2.1503505
2.2281377
2.2908052
2.3424809
2.4174245
2.5446356
2.7151762
2.8754335
2.9706862
2.9858662
2.9845201
1.23539
1.1592154
0.48155771
1.0954323
2.4056622
0.95128304
0.78478533
0.13118866
0.73427563
1.5958876
1.7607124
1.8694765
1.9463992
2.0068621
2.0538591
2.0951167
2.1376486
2.1850937
2.2391592
2.2994824
2.3637375
2.4278811
2.4865894
2.5356161
2.5710325
2.5898918
1.3563013
1.4138052
1.4942217
1.5909393
1.6948499
1.7941027
1.8830196
1.9640033
2.0415168
2.1176751
2.19091
2.2555553
2.3219573
2.4176237
2.5662425
2.7553961
2.9304347
3.0382037
3.0726656
3.0595958
3.0062583
2.9386984
1.2509507
2.7755421
2.7233907
2.8693505
1.2608545
1.2793964
0.38827744
0.2988893
0.84265743
1.6537605
1.7685567
1.8535798
1.9210153
1.9747476
2.0171598
2.0549751
2.0936668
2.1365863
2.1856086
2.2407281
2.3001067
2.3602915
2.4167826
2.4652961
2.5012301
2.5221114
1.3980044
1.4477206
1.5161724
1.6009338
1.6939211
1.7837618
1.8650277
1.939998
2.0125188
2.0842891
2.1531394
2.2217136
2.3015135
2.4154938
2.5795397
2.776396
2.9489434
3.0605028
3.1116314
3.1158542
3.0802334
3.0221119
3.0013256
2.9759876
3.0367892
3.1962022
3.4616216
3.5816549
1.4388034
1.2967733
0.33780254
0.76532247
1.5788855
1.6787151
1.764347
1.8351421
1.8948477
1.9424628
1.9808694
2.0154031
2.0502999
2.0887342
2.132772
2.1828038
2.2376108
2.2945216
2.3496923
2.3985627
2.4362714
2.4601805
1.4444297
1.4889079
1.5473978
1.61988
1.6999837
1.7780411
1.8497014
1.9172633
1.9837923
2.050158
2.116487
2.189618
2.2802481
2.4073813
2.5807396
2.7727138
2.9359619
3.0484077
3.116544
3.1523309
3.1665602
3.1656886
3.1685103
3.2140349
3.3180005
3.4785336
3.6529647
3.7416033
3.7766291
1.565354
1.3617167
1.009599
0.15040914
0.34900481
0.86164727
1.6381318
1.6953082
1.7581137
1.8174467
1.8691671
1.9111871
1.9457401
1.9768465
2.0078486
2.0418133
2.080972
2.1261984
2.1769462
2.2314476
2.2863817
2.3371094
2.3780089
2.4059638
1.495593
1.5363202
1.5863156
1.6462502
1.7119986
1.7764411
1.8370236
1.8960517
1.9556408
2.0157407
2.0806538
2.1572263
2.2556033
2.39042
2.5645241
2.7450516
2.8969097
3.0089252
3.0915018
3.1560574
3.2191499
3.2673172
3.3119599
3.3895902
3.5090165
3.6574958
3.7915343
3.8501735
3.8078139
3.675098
3.437844
1.3318315
1.0379159
0.33406656
0.77741717
1.6413357
1.6795961
1.7089975
1.7541916
1.802262
1.8455358
1.8820051
1.9124667
1.9398372
1.9667752
1.9962261
2.0306761
2.0715289
2.1189648
2.1721513
2.2284044
2.2825896
2.3279487
2.36083
1.5539998
1.5912289
1.6328759
1.6797257
1.7299761
1.779525
1.8279149
1.8771176
1.9280882
1.9821356
2.0448967
2.1226139
2.2247268
2.3619899
2.5295625
2.6966452
2.8382232
2.9495321
3.0435185
3.1302273
3.2279156
3.3146915
3.3970816
3.5042054
3.6385098
3.7831427
3.9001772
3.9379269
3.8620516
3.6873754
3.4540456
3.1999981
2.896917
1.1100567
0.80282245
0.21841475
0.33733603
0.85881672
1.7152161
1.7166254
1.7242298
1.7539383
1.7900527
1.8250528
1.8557144
1.8816773
1.9048373
1.9274299
1.9523818
1.9824039
2.0195008
2.064655
2.1179453
2.1771547
2.236184
2.2869352
2.3253928
1.623941
1.6566443
1.689104
1.7219573
1.7556895
1.7893606
1.8242779
1.862019
1.9025997
1.950004
2.0086895
2.084926
2.1863972
2.3212598
2.4791022
2.633611
2.7666958
2.8781243
2.9807849
3.0844145
3.2058958
3.3248465
3.4450886
3.5844425
3.7398689
3.8920114
4.0047895
4.025859
3.9260298
3.7309935
3.4823655
3.2042095
2.9011236
2.5781867
2.1957012
0.87098542
0.5784162
0.28067659
0.75872572
1.6974307
1.7639006
1.7490093
1.7426825
1.757732
1.7820999
1.8087936
1.8331753
1.8540058
1.8724566
1.8904218
1.9108196
1.9367561
1.9708414
2.0149624
2.0699362
2.1335577
2.1984124
2.2550562
2.2994942
1.7107881
1.7373812
1.7592358
1.7769263
1.7930974
1.8097703
1.8295643
1.853003
1.8825268
1.9212366
1.973488
2.0452925
2.1427288
2.2715424
2.4187292
2.5628314
2.6900387
2.8022675
2.9119826
3.0290943
3.1691681
3.3188829
3.4780554
3.6532806
3.8363895
4.0048823
4.1206498
4.1287634
4.0111068
3.7973636
3.5267042
3.2195603
2.8841056
2.5202752
2.0875013
1.6092304
0.68131304
0.69759562
1.6241316
1.7741751
1.8035064
1.7793736
1.7640049
1.765961
1.7794714
1.7976509
1.8151037
1.8300978
1.8431362
1.856071
1.8719566
1.8942316
1.9262992
1.9708501
2.0289975
2.0980349
2.1692062
2.231811
2.2824431
1.8199014
1.8390581
1.8490508
1.8505863
1.848275
1.8464854
1.8484601
1.8555886
1.8720185
1.8996675
1.9429121
2.0074397
2.098168
2.2186328
2.3562519
2.4926061
2.6163503
2.7301449
2.8462344
2.9757747
3.1330104
3.3142181
3.5132272
3.7265739
3.9410582
4.1304218
4.2529644
4.254425
4.1275811
3.8986184
3.6042074
3.2649346
2.9042741
2.5112082
2.0495706
1.6363238
1.4817334
1.5421848
1.7086922
1.8174618
1.8321025
1.8080768
1.7867582
1.7788037
1.7826901
1.7922494
1.8022991
1.8105587
1.8176275
1.8250429
1.8363495
1.8555068
1.8865077
1.9328045
1.9954343
2.0704562
2.1480346
2.2164366
2.2732842
1.9552529
1.9665755
1.964399
1.9495234
1.928192
1.9063071
1.887355
1.8763369
1.8769074
1.8908444
1.9227404
1.977679
2.0596143
2.1709019
2.3003787
2.4320321
2.5547936
2.670906
2.7936812
2.9353009
3.1117367
3.3237026
3.56112
3.8124228
4.058564
4.2689113
4.4002765
4.4044845
4.2785022
4.0412294
3.7240263
3.3599201
2.971546
2.5499093
2.0706717
1.6915703
1.5681301
1.6255696
1.7531441
1.8398319
1.8532137
1.8333351
1.8101124
1.7957889
1.791584
1.7929441
1.7950006
1.7964171
1.7961752
1.7977263
1.8044646
1.8209289
1.851963
1.9013622
1.9692964
2.0504423
2.1342256
2.2081582
2.2712786
2.1179408
2.122129
2.1087313
2.07836
2.0382647
1.9951489
1.9531176
1.9217591
1.9036703
1.9014936
1.9200941
1.9640509
2.0363919
2.1387061
2.2616378
2.39141
2.5161708
2.6367591
2.7666964
2.9211639
3.1183141
3.3576498
3.6280434
3.9125522
4.1857887
4.4141507
4.5574243
4.5745835
4.4586548
4.2199208
3.8852875
3.4962122
3.0818285
2.6351641
2.1423887
1.7647681
1.6304243
1.6715635
1.7746776
1.8515313
1.869264
1.8550324
1.83313
1.8156988
1.8052505
1.7991079
1.7939445
1.7875493
1.7798255
1.7751787
1.7767927
1.7911587
1.8230389
1.8761837
1.9499518
2.0372171
2.1270463
2.2062325
2.2760734
2.3042137
2.3027399
2.2799955
2.2361212
2.1786079
2.1144536
2.048968
1.9956275
1.9568497
1.9371603
1.9417242
1.9745714
2.0375867
2.1320916
2.2505062
2.3812553
2.5119155
2.6407659
2.7802739
2.9480897
3.1659521
3.4258963
3.7181716
4.0233155
4.3136619
4.555127
4.7130177
4.7495497
4.6517527
4.4205064
4.0771452
3.663546
3.2289843
2.7628623
2.2593732
1.8641174
1.6959219
1.7063553
1.7868278
1.8566808
1.8800733
1.8726972
1.8546375
1.8367165
1.8225556
1.8104633
1.7980418
1.7837733
1.7683617
1.7570735
1.753536
1.7661004
1.7997378
1.8576821
1.9372997
2.0304655
2.126072
2.2104629
2.2875125
2.5036095
2.4980366
2.4681116
2.4131768
2.3406329
2.2574711
2.1705397
2.0947167
2.0352625
1.9985361
1.9900763
2.0135437
2.0695767
2.1587326
2.2737478
2.4074268
2.5504804
2.6968553
2.8517227
3.0370069
3.2630531
3.5274601
3.8198493
4.1215044
4.4071583
4.6497821
4.8243107
4.8901714
4.8210371
4.6101897
4.2743535
3.8494468
3.399575
2.9218472
2.4127011
1.9928653
1.7786424
1.7456342
1.7985849
1.858954
1.8863352
1.8856009
1.8726236
1.8563542
1.8408644
1.8245263
1.8060308
1.7844116
1.7616898
1.7434882
1.7355316
1.7463521
1.7820106
1.844412
1.9297534
2.0287683
2.1300502
2.2196756
2.3049241
2.6977793
2.6893358
2.6540606
2.5906237
2.5062668
2.4073836
2.303434
2.206219
2.1286643
2.0774178
2.0586279
2.0755156
2.1297253
2.2160623
2.3282829
2.4625458
2.6218061
2.8039207
2.9947816
3.1316167
3.3183732
3.5472867
3.8095699
4.092149
4.3717845
4.6182054
4.8052522
4.8993243
4.8799523
4.7257062
4.4327645
4.0273603
3.5697879
3.0921555
2.5852012
2.1435905
1.8805932
1.7957403
1.8142277
1.8598589
1.8880861
1.8937465
1.8866466
1.8736832
1.8580311
1.8392875
1.816372
1.7887583
1.7591871
1.7342678
1.7220251
1.7312737
1.7691114
1.8365731
1.9272305
2.0314956
2.1379865
2.2326265
2.3267752
2.8616545
2.8513139
2.8125263
2.7432463
2.6502357
2.5396111
2.4213819
2.3096893
2.2176521
2.1549099
2.1293703