/*--------------------------------*- C++ -*----------------------------------*\
  =========                 |
  \\      /  F ield         | OpenFOAM: The Open Source CFD Toolbox
   \\    /   O peration     | Website:  https://openfoam.org
    \\  /    A nd           | Version:  8
     \\/     M anipulation  |
\*---------------------------------------------------------------------------*/
FoamFile
{
    version     2.0;
    format      ascii;
    class       volScalarField;
    location    "7200/air";
    object      epsilon;
}
// * * * * * * * * * * * * * * * * * * * * * * * * * * * * * * * * * * * * * //

dimensions      [0 2 -3 0 0 0 0];

internalField   nonuniform List<scalar> 
167754
(
0.0032390255
0.0031625274
0.0027769092
0.0022262208
0.0016558895
0.0011712555
0.00081846465
0.00059299172
0.00046372813
0.00039609918
0.00036469308
0.0003559218
0.00036731082
0.00040996413
0.0005169145
0.00075779194
0.0012477717
0.002123201
0.0034610723
0.0051748146
0.0069834899
0.0085496036
0.0096246609
0.010114246
0.0099702721
0.009159241
0.007782884
0.0061503452
0.0046376495
0.0035416984
0.0026733758
0.0019863049
0.0014628569
0.0010831912
0.00082098534
0.00064712614
0.00053494068
0.00046344365
0.00041756977
0.00038727517
0.00036624649
0.00035102425
0.00034048024
0.00033652908
0.00035192395
0.00042683167
0.00066146744
0.0012350411
0.00232727
0.0040076989
0.0062246198
0.0088508907
0.011735249
0.014706453
0.017559725
0.020042884
0.021855544
0.022670528
0.022211944
0.021713329
0.021280269
0.01923696
0.016155451
0.012647912
0.0092590882
0.0063788737
0.0042026689
0.0027404942
0.0018751629
0.0014502262
0.0013543413
0.001581367
0.0022788466
0.0037979774
0.0066709805
0.011407065
0.018155666
0.026460946
0.035265484
0.043211023
0.049260186
0.052942289
0.054361692
0.053530179
0.050303518
0.044986941
0.038651972
0.032530783
0.027658258
0.023213972
0.019062513
0.015257345
0.011885857
0.0090264227
0.0067263809
0.004976831
0.0037080101
0.0028157908
0.0021952449
0.0017618849
0.00145923
0.0012619803
0.0011899481
0.0013884021
0.002326985
0.0048028701
0.0094937676
0.016332502
0.024685071
0.033968962
0.043534467
0.052986181
0.062026631
0.070301338
0.077310689
0.082386183
0.084748389
0.083639888
0.064692004
0.063639914
0.059010437
0.05187658
0.043365875
0.034546802
0.026300788
0.019261318
0.013795068
0.010026982
0.0079128158
0.0073786442
0.008525423
0.011784621
0.017866637
0.027392955
0.040415895
0.056197364
0.073354994
0.090145034
0.10447936
0.11335593
0.11804929
0.12082087
0.12062054
0.11525882
0.10541027
0.094649387
0.084937041
0.077046505
0.069479858
0.062004783
0.054374427
0.046594579
0.03889218
0.031687987
0.02535465
0.020083621
0.015881777
0.012636911
0.010190273
0.0084125909
0.0072814679
0.007006916
0.0083138839
0.012741228
0.021944177
0.036027256
0.053224029
0.07139504
0.089167243
0.10593943
0.1216283
0.13623289
0.14951727
0.1608522
0.1692073
0.17330333
0.17186344
0.12637372
0.12454846
0.11725432
0.10599064
0.092307909
0.077701226
0.063454401
0.050581723
0.039842633
0.031805586
0.02690352
0.025472739
0.027903411
0.034671599
0.046153041
0.062183828
0.081710775
0.10287049
0.12372226
0.14587638
0.25677542
0.27823508
0.21104162
0.22085477
0.23245307
0.23049883
0.21456516
0.19539112
0.17450026
0.15356924
0.13473735
0.11853338
0.10612014
0.095755972
0.085170796
0.074367189
0.06391608
0.054356659
0.046049723
0.039128824
0.033551867
0.029322549
0.026720583
0.026580816
0.030640444
0.041342652
0.060008026
0.084900144
0.112166
0.13844051
0.16214228
0.1832027
0.20227971
0.21998091
0.2363585
0.25070447
0.26161389
0.26728885
0.26595341
0.19555074
0.19289458
0.18330615
0.16859124
0.15061872
0.13120664
0.11194102
0.094113298
0.078772826
0.066876829
0.059337162
0.056756202
0.059677893
0.068424758
0.082809355
0.10167836
0.122744
0.14455491
0.26476626
0.28377887
0.28284071
0.33472797
0.4285919
0.43853889
0.44552684
0.50367751
0.47499833
0.44671719
0.38641642
0.32332234
0.26917397
0.22398236
0.18676726
0.15840683
0.13658705
0.12054585
0.10817692
0.096780451
0.086419113
0.077455379
0.070030322
0.064390631
0.061296644
0.062399738
0.070342894
0.087833979
0.11519616
0.14887047
0.18335792
0.21443476
0.24056671
0.26241143
0.28158498
0.29949998
0.31662779
0.3322461
0.34460374
0.35141304
0.35046666
0.26234683
0.25889428
0.24759082
0.23039401
0.20936597
0.18652728
0.16365017
0.14217909
0.12330498
0.1083232
0.098731032
0.094958635
0.097336347
0.10601804
0.1205926
0.13982411
0.16461733
0.29043994
0.27111074
0.21846469
0.20199429
0.258596
0.66014545
0.75531599
0.64365925
0.68779888
0.71883135
0.73628624
0.75075586
0.66059256
0.56934821
0.45004732
0.34401546
0.26599631
0.21166637
0.17618167
0.15313889
0.13714508
0.12678315
0.11823384
0.11094897
0.10540898
0.10299007
0.10619652
0.11832275
0.14194744
0.17634178
0.21651003
0.25570008
0.2889732
0.31483929
0.33468601
0.35118316
0.36670065
0.38228294
0.39731818
0.40980797
0.41706892
0.41658548
0.3196506
0.31554798
0.30325254
0.284679
0.26192607
0.23706027
0.21187648
0.18778985
0.16592745
0.14786018
0.13630383
0.13188799
0.13383274
0.14211023
0.15792116
0.18258498
0.31233057
0.26367112
0.29457262
0.06989515
0.41572682
1.215519
1.1014541
0.47353906
0.8004947
0.78236017
0.97427917
1.0405284
1.0068552
0.92420223
0.74949276
0.60958674
0.45254347
0.33615784
0.25840595
0.2090518
0.1805608
0.16490049
0.15559038
0.15015767
0.14562376
0.14362822
0.14807667
0.16333959
0.1919394
0.23211387
0.27750656
0.32016506
0.3543863
0.37860139
0.39482602
0.4067879
0.41792232
0.43001271
0.44273368
0.45400914
0.46094451
0.4608779
0.36325846
0.35869708
0.34615569
0.32732321
0.30414304
0.27851794
0.25207233
0.22603624
0.201523
0.25593236
0.16633485
0.16293811
0.16663362
0.17786654
0.20146207
0.34896303
0.29148202
0.11916662
1.38102
1.7602603
1.353121
0.41389125
1.0397293
0.9384099
1.0659094
1.0478961
0.91398496
0.65948498
0.53846601
0.41060257
0.30275283
0.24070276
0.20891331
0.19383384
0.18644702
0.18142163
0.17911983
0.18261392
0.19838546
0.22985093
0.27453977
0.32457388
0.37048236
0.40556524
0.42798159
0.44017935
0.44683404
0.45247194
0.45974761
0.46881775
0.47779378
0.48394257
0.48510108
0.39275307
0.38747642
0.37472408
0.35647964
0.33394798
0.30856328
0.28139822
0.2536063
0.33141009
0.26899828
0.26032931
0.26867198
0.20099354
0.21556254
0.24979486
0.38720084
0.40383973
2.013606
2.0337772
0.65624015
0.41229952
1.0038426
0.79279714
0.83151663
0.76996045
0.6569195
0.44290432
0.35338802
0.290095
0.24682682
0.2234547
0.2117987
0.20615977
0.20688259
0.22053427
0.25192055
0.29914607
0.35317565
0.40255058
0.43917021
0.46065069
0.46954292
0.47126432
0.47134892
0.47336144
0.47814729
0.48452406
0.49037028
0.49195663
0.40738473
0.40221401
0.39029865
0.37253979
0.35100532
0.32640891
0.29872124
0.27015232
0.32340018
0.41615981
0.15714229
0.21322804
0.30299936
0.35271625
0.41885596
0.44631758
0.18992048
0.96413011
2.3850215
2.5858679
0.44566483
0.7826383
0.5764665
0.61833204
0.60407433
0.57729811
0.3109318
0.25549029
0.22857626
0.2183049
0.21608645
0.22778748
0.25672376
0.30417337
0.36084252
0.41353605
0.45260961
0.47477676
0.48213022
0.48046891
0.47614094
0.47354717
0.47444698
0.47901561
0.48344452
0.48493437
0.40827834
0.40365489
0.3933963
0.37742819
0.35712244
0.3333314
0.30694836
0.43047972
0.27923388
0.14371188
0.23607646
0.35435971
0.50533708
0.51135393
2.0254519
2.3751695
1.0669211
0.39325495
0.78678135
0.51489271
0.52057627
0.47060876
0.19599053
0.20060246
0.42043722
0.21563191
0.24495001
0.29086647
0.34775393
0.40174131
0.44384637
0.46858618
0.47683179
0.47441491
0.46819557
0.4630607
0.4623241
0.4648161
0.46761295
0.46871814
0.39865029
0.39460314
0.38615603
0.37230334
0.35358815
0.32941306
0.47009241
0.35552238
0.29118737
0.17550867
0.62476193
0.62035183
2.3079261
2.9174725
0.39006327
0.43863284
0.29093696
0.35010441
0.32126673
0.34646139
0.3941809
0.46005783
0.31710707
0.37353834
0.41647483
0.44349673
0.45450392
0.45428076
0.44976777
0.44571619
0.4446878
0.44588518
0.44741991
0.44804393
0.38294351
0.37915269
0.37203118
0.35977111
0.34202318
0.31807904
0.39772203
0.26188003
0.21942611
0.81663221
2.1381203
0.79432988
0.22184748
0.27266337
0.37286068
0.23413917
0.260239
0.24436756
0.41230797
0.52141101
0.59601327
0.39999817
0.41764911
0.42214562
0.4229734
0.4232674
0.42445969
0.4259943
0.42698561
0.42715101
0.36619582
0.3621357
0.35533203
0.34329882
0.32460867
0.4808387
0.3337247
0.25332871
0.10531146
1.6990496
2.2488694
0.1018032
0.30080485
0.076598205
0.14837483
0.23426581
0.33008566
0.49138868
0.56719633
0.59697339
0.38153147
0.39529324
0.40391623
0.40853151
0.40987451
0.40957634
0.35377658
0.34888635
0.34110152
0.32730254
0.30413542
0.37799044
0.46745651
1.6239212
1.7404164
0.76375226
0.047795155
0.079109141
0.082981011
0.075018906
0.20585584
0.26147422
0.34811341
0.49264144
0.58405281
0.38554136
0.39660922
0.39899112
0.39803733
0.35124102
0.34520073
0.33518128
0.31754298
0.45925936
0.30822732
0.16612451
0.87865655
1.7731479
1.7638274
0.11218419
0.074958276
0.04651482
0.10964959
0.39143698
0.41544442
0.59878914
0.39654927
0.39713956
0.39452598
0.3641428
0.35752219
0.34524747
0.32131603
0.38309578
0.4460049
1.6171963
1.5527598
0.85897032
0.077496644
0.13740766
0.47184448
0.56808476
0.41027137
0.4057977
0.40013391
0.39709653
0.39264307
0.38618077
0.53445641
0.39169567
0.20452444
1.2373238
1.5979552
1.1348622
0.11255631
0.081213967
0.087783689
0.16756053
0.62026237
0.43214925
0.42399651
0.41469549
0.45130006
0.45136065
0.45430385
0.60395681
0.48522894
0.87526726
1.5012125
1.3706914
0.90039014
0.12767745
0.071083526
0.039882538
0.31690527
0.64669421
0.45866544
0.45009715
0.43753632
0.52282769
0.52768348
0.53483298
0.71683192
0.63665207
0.20488987
1.2222785
1.4619831
1.0247389
0.32580727
0.065194241
0.085439622
0.37673234
0.46441201
0.48590468
0.48213777
0.46761727
0.60330702
0.61164654
0.61616331
0.63275639
0.79456491
0.62811064
0.6198382
1.4669212
1.2883596
0.94403645
0.10547705
0.059963472
0.084683339
0.42692415
0.48984866
0.51712102
0.51857249
0.50328245
0.6825524
0.69246318
0.69626342
0.70923298
0.95309981
0.63024912
1.2947332
1.4818507
1.1320596
0.39719847
0.043920572
0.09280845
0.10446994
0.51276429
0.52202868
0.55236519
0.5579457
0.54241813
0.7494755
0.75315496
0.75758988
0.76980426
1.0220194
0.86196519
0.26201667
0.87162187
1.5486827
1.417643
1.0245759
0.46748686
0.26300625
0.23110101
0.22240385
0.19672265
0.13894661
0.083856168
0.04184246
0.023552159
0.026707772
0.041150586
0.049045572
0.045278044
0.041603941
0.046738051
0.058520249
0.070144817
0.080208456
0.10060262
0.1343067
0.18482338
0.18643458
0.13990637
0.078941117
0.59986363
0.55860645
0.59034449
0.59849044
0.5826202
0.78486337
0.78217635
0.78847993
0.79934589
0.82546358
1.0443467
0.42835907
1.4498208
1.6149815
1.3278126
1.6378185
0.64294584
0.66961129
0.57020547
0.45514304
0.29491098
0.15284178
0.080703909
0.035330552
0.034947756
0.054199968
0.057027891
0.088594262
0.10719854
0.12186182
0.14579902
0.13590474
0.15511181
0.15558603
0.23721399
0.43806899
0.63582243
0.27471869
0.16868001
0.11973114
0.10086915
0.67441423
0.59685777
0.62794093
0.63763797
0.62121463
0.79009098
0.78481585
0.79147953
0.8070209
0.84269318
1.1830133
1.0146993
1.1746192
1.7298443
1.59741
1.2449403
1.2990815
1.1417835
0.5786474
0.44686167
0.36171637
0.0061083194
0.0068982431
0.0086772026
0.050358098
0.10903504
0.059549406
0.17567506
0.27420557
0.22282796
0.16672587
0.16893127
0.13338416
0.73327373
0.63170399
0.66149923
0.67220638
0.65567059
0.77501571
0.76640428
0.77373257
0.79438349
0.84296851
1.2623332
0.9723839
0.71678372
1.7293494
1.8641414
1.5644733
1.2028811
0.46465873
0.1318397
0.32237468
0.13801368
0.06315353
0.028889303
0.0044367414
0.014017495
0.030120849
0.037509605
0.043514308
0.042942587
0.034827504
0.034279989
0.031897636
0.037729386
0.10529347
0.18219889
0.19800885
0.089491385
0.098934664
0.10981745
0.090603944
0.15189503
0.20355706
0.2836584
0.7289278
0.65715606
0.68774574
0.69950927
0.68364262
0.72987578
0.72023333
0.73046521
0.75767948
0.81251531
1.2176423
1.1597628
0.34714802
1.3796301
2.096268
3.1707748
2.7249666
2.4131669
1.845309
0.59334062
0.21744496
0.084018405
0.20761605
0.26252313
0.27613334
0.2630277
0.2338548
0.19735856
0.1644742
0.14128542
0.18787234
0.13077608
0.23094521
0.13145055
0.11123407
0.07738942
0.057936192
0.10237507
0.1300345
0.15062318
0.34257284
0.72076569
0.67299502
0.70514698
0.71831916
0.70385995
0.65520304
0.64828028
0.6634485
0.69788234
0.75537315
0.84235221
1.2634558
1.3709711
0.33120794
1.8951348
2.4234121
2.943057
1.8966415
1.2849843
1.1614109
0.98038645
0.68550974
0.34866117
0.65381948
0.62278446
0.5673971
0.48860688
0.40647002
0.32566085
0.24894419
0.18317936
0.13619324
0.11240044
0.10735975
0.10763232
0.061758255
0.16642004
0.1736449
0.1374929
0.091179353
0.10558973
0.053090665
0.49375044
0.63541888
0.67848086
0.71466891
0.72942983
0.71701316
0.56093748
0.55918782
0.58020337
0.62149747
0.68364607
0.76602867
0.8641649
1.1534684
0.74268537
0.1726725
1.2690637
2.1687432
3.8658988
2.543574
0.89875872
0.67034196
0.79544126
0.52068628
0.43898458
0.36549078
0.29914087
0.23937536
0.1866357
0.14203041
0.10692544
0.082235759
0.1123597
0.097467891
0.11407159
0.2664396
0.41855897
0.37181405
0.32366958
0.25971755
0.050901372
0.53192443
0.63352881
0.68106037
0.71928877
0.73645478
0.7277042
0.46086563
0.46470153
0.49116069
0.53802923
0.60465043
0.68888144
0.78524581
0.87776229
1.13955
1.0223864
1.3760423
1.5992473
2.3769575
1.752601
1.0364017
0.56487857
0.96785355
0.66457359
0.56118328
0.47290662
0.39417214
0.32411636
0.26174759
0.20629857
0.15829756
0.11896262
0.089441271
0.11858022
0.095280065
0.12523811
0.35215471
0.85167534
0.56579686
0.52569014
0.53509464
0.49872956
0.64774952
0.4280393
0.55632714
0.63477179
0.68361767
0.72356003
0.74385122
0.73976831
0.36704474
0.37547848
0.40603418
0.45666746
0.52648571
0.61341389
0.71287508
0.81671717
0.92718466
1.0896675
1.991978
2.2944708
2.2146041
1.8627535
1.2937095
0.95605151
0.78953259
0.68554163
0.58981487
0.50245336
0.42248514
0.34920149
0.28409871
0.22588503
0.17466479
0.13147648
0.097573956
0.12626164
0.092608089
0.12896543
0.52388863
0.64564349
0.64450907
0.71296258
1.0525084
1.3949799
0.60271542
0.55967171
0.45124229
0.49324464
0.27271373
0.072287113
0.56628378
0.63192128
0.68230081
0.72456246
0.74890476
0.74997621
0.28640706
0.29831322
0.33135604
0.3838282
0.45507594
0.54348887
0.64552932
0.75555089
0.87320606
1.5867359
1.6770227
3.0321765
2.0329172
1.87193
1.4349284
1.0062626
0.79481206
0.70186709
0.61138301
0.52539836
0.44485753
0.37028446
0.30315343
0.24278333
0.18892675
0.1424064
0.10461524
0.1336294
0.089000683
0.10926615
0.56588105
0.34448351
0.14520711
0.06049377
0.50009825
0.86661979
1.0260916
0.46705521
0.38490556
0.27900157
0.22428402
0.097022155
0.075268867
0.56041191
0.62282198
0.67613226
0.72172013
0.75087638
0.75727471
0.22162977
0.23604686
0.27004727
0.32269522
0.39365532
0.48179885
0.58434516
0.6967192
0.81927795
1.3811074
1.5985712
2.2523954
2.5217567
1.7817676
1.5784853
1.0015105
0.78983641
0.70796523
0.62235993
0.5382082
0.45795474
0.38291269
0.31482543
0.25266094
0.19639501
0.14691659
0.10632272
0.13690314
0.08798847
0.056280056
0.1165803
0.46917465
0.47358528
0.15272124
0.089430186
0.27311602
0.43143979
0.49151495
0.26549121
0.22081565
0.1727052
0.12281904
0.045059515
0.14810327
0.55125331
0.60665538
0.66604823
0.71602374
0.75036677
0.76196608
0.17513967
0.18977058
0.22270678
0.27403526
0.34304683
0.42938199
0.53038098
0.64208978
0.76633824
1.3396798
1.5175476
1.723411
1.1084417
2.3048813
1.4615338
0.92776516
0.75966747
0.69200297
0.61044396
0.52740122
0.44752631
0.3733185
0.30308906
0.23832499
0.18046148
0.13067996
0.091798477
0.11834829
0.081238551
0.16849336
0.13956114
0.37529449
0.18135427
0.23481669
0.11217926
0.1995312
0.26878253
0.20268088
0.18010024
0.27199277
0.49460016
0.58757975
0.65473919
0.70933219
0.7486971
0.76514939
0.14260542
0.15732819
0.18849394
0.23747495
0.30374315
0.38615559
0.48322982
0.59181816
0.70987782
0.85996819
1.4281078
1.582257
1.1199024
1.2683441
1.446058
0.7992458
1.0708056
1.1054634
1.02936
0.89993255
0.74347272
0.57207353
0.39825875
0.24946444
0.14578093
0.084821111
0.054981904
0.049484331
0.072974986
0.26410269
0.2732625
0.322967
0.11941765
0.099341201
0.32166385
0.32167393
0.49036763
0.57601572
0.64549795
0.70364016
0.74737729
0.76818133
0.11883575
0.13448465
0.16452743
0.21089709
0.27416578
0.35210165
0.44325196
0.54509688
0.65503391
0.77682626
1.3226652
1.0773169
0.98986143
1.1682385
1.2455938
1.1630636
1.152401
1.1504873
1.1294583
1.0820129
1.8079016
1.4124825
1.2564821
0.94656798
0.53338341
0.21448168
0.077264568
0.055043944
0.047682041
0.032944344
0.028920235
0.052670071
0.06307563
0.28906903
0.47468641
0.15302774
0.18089447
0.1992246
0.42797989
0.49424578
0.57107351
0.63976508
0.70015416
0.74746916
0.77212226
0.10134134
0.11802534
0.14775302
0.19197881
0.2521659
0.32529548
0.40974336
0.50312984
0.60229783
0.70473102
1.2185105
1.0925628
0.91146091
1.3045758
1.9327452
1.2320477
1.3000838
1.304048
1.2606807
1.1639016
1.9750534
1.1700895
0.50690579
0.22003407
0.081744005
0.022196443
0.016838446
0.035695165
0.031289221
0.017469386
0.016273124
0.029942987
0.031544924
0.21163747
0.40386863
0.23720654
0.28185528
0.39382487
0.49508946
0.56879661
0.63671982
0.69887047
0.74922394
0.77732027
0.088478376
0.1059202
0.1359439
0.17860793
0.23560393
0.30375678
0.38118939
0.46562289
0.55326818
0.6408175
1.1336445
1.0632686
0.94008841
0.92266688
1.3285928
0.86079435
1.039417
1.1152975
1.1035496
1.02008
1.614748
0.85784916
0.33971261
0.09155863
0.036922664
0.013798281
0.019701273
0.081826219
0.010096768
0.0053646593
0.0077305629
0.04097482
0.053015416
0.083214447
0.083398315
0.064638454
0.16157113
0.38275308
0.41022984
0.49599782
0.56728934
0.63538392
0.69920231
0.75209363
0.78319919
0.078877436
0.09705032
0.12744951
0.16882733
0.22260343
0.28569792
0.35610219
0.43163884
0.508654
0.58155467
0.63580355
0.99949907
0.5975289
0.46113092
0.6945192
0.71459891
0.58020965
0.71697274
1.4917731
1.5479528
1.313838
0.40377741
0.1177664
0.059292641
0.033291118
0.027228052
0.033676599
0.066984957
0.023237956
0.014387833
0.014364625
0.057891012
0.17895695
0.077861142
0.062038504
0.074598951
0.27148122
0.3302576
0.42119846
0.49703658
0.56665452
0.63520174
0.70019734
0.75477116
0.78819426
0.071501596
0.090373363
0.12103597
0.16117546
0.2117059
0.26975496
0.33333272
0.40041944
0.46769093
0.52923373
0.57029112
0.89876277
0.52065766
0.33805475
0.30437265
0.30970543
0.31552659
0.37001232
0.47709831
0.46962176
0.41437883
0.31638016
0.19967195
0.1224712
0.074679129
0.045597724
0.033880828
0.032816313
0.029772423
0.02040933
0.023195227
0.06534009
0.094378845
0.086434817
0.01868383
0.18559253
0.26649101
0.35213432
0.42862489
0.49838007
0.56673475
0.63522938
0.70034384
0.75522528
0.78983135
0.065614397
0.085074206
0.11580644
0.15464963
0.20190338
0.25503017
0.31215401
0.37148414
0.43015765
0.48259703
0.51359128
0.81129149
1.0308998
0.25081526
0.16312967
0.13189632
0.11103333
0.11630351
0.16397824
0.2135122
0.25158372
0.26771669
0.2231109
0.13224105
0.050692539
0.0071228838
0.0041454564
0.0071827778
0.010102964
0.011574971
0.0098436455
0.063039689
0.10465282
0.13761982
0.12785242
0.08101453
0.30053028
0.29514966
0.36654084
0.43384121
0.49962586
0.56653654
0.63392813
0.69763178
0.75109344
0.78554558
0.060726175
0.080577968
0.11113296
0.14857772
0.19256721
0.24099297
0.2921348
0.34444091
0.39551707
0.4405786
0.46591512
0.79992643
1.021146
0.015708763
0.041814538
0.067985206
0.096051487
0.12977161
0.11533452
0.050206699
0.22257671
0.2486658
0.31481719
0.37618027
0.43734761
0.49994794
0.56469281
0.6296342
0.69030246
0.74066106
0.77351427
0.05653385
0.076512815
0.10661161
0.14255158
0.1833767
0.22741406
0.27310239
0.31908959
0.36332261
0.40166255
0.42106718
0.75444704
0.35704049
0.0036927956
0.021214353
0.019156034
0.022771085
0.18312689
0.10955648
0.12860603
0.12165515
0.1445163
0.33091673
0.27212131
0.32784477
0.38238205
0.43897683
0.49836622
0.560017
0.62122498
0.67752562
0.72361501
0.75388049
0.052865397
0.072670665
0.10203096
0.13638682
0.17424085
0.21428272
0.25511345
0.29553226
0.33373364
0.36607801
0.38050114
0.69421841
0.40687024
0.095292034
0.01806675
0.021388005
0.0307487
0.095962051
0.2217811
0.10142492
0.10577115
0.058532099
0.25968722
0.23805054
0.28864837
0.33638709
0.38571841
0.43829954
0.49412858
0.55185021
0.60841397
0.65962104
0.70095399
0.72820545
0.049636768
0.06896879
0.097332649
0.13006322
0.16521134
0.20171167
0.23833508
0.27401618
0.30715043
0.33456144
0.3463071
0.29385547
0.42485598
0.24454603
0.032498526
0.028601363
0.020903238
0.011760553
0.10663407
0.080437539
0.099023558
0.072152988
0.043530017
0.24362471
0.36368682
0.25793742
0.29956298
0.34137511
0.38630439
0.43500189
0.48689112
0.54014444
0.59164902
0.63757997
0.67413387
0.69825334
0.046820929
0.065411861
0.092561422
0.12365622
0.15640813
0.18986381
0.22295734
0.25475422
0.28382857
0.30740552
0.3174849
0.28079367
0.43595712
0.44838379
0.017163449
0.042366918
0.035849132
0.037768795
0.13043889
0.082054755
0.091403411
0.13248405
0.053358391
0.18533017
0.31001654
0.23449884
0.27141292
0.30613181
0.34322762
0.38416561
0.4289826
0.47671089
0.5252868
0.57169517
0.6124941
0.64450606
0.66544615
0.044426234
0.062057279
0.087821651
0.11729417
0.1480112
0.17889604
0.20910883
0.2378182
0.26373641
0.28441567
0.29354928
0.26759408
0.43936627
0.22906231
0.040691564
0.04892904
0.032199097
0.019314127
0.050267587
0.14805853
0.095969292
0.088815845
0.079135052
0.2631063
0.21010925
0.24937444
0.27914482
0.30900917
0.34219318
0.37942058
0.42038808
0.46390214
0.50782391
0.54931209
0.58529383
0.61315246
0.63102711
0.042484557
0.058995961
0.083255621
0.11113598
0.14012271
0.16893101
0.19683374
0.22310947
0.24654089
0.26491327
0.27325608
0.25450064
0.4340933
0.26547137
0.11776558
0.063381971
0.049263239
0.044400995
0.042301492
0.055962452
0.095375123
0.2200626
0.18273426
0.22598144
0.25699852
0.28231039
0.30872433
0.33857343
0.3723173
0.40951658
0.44887594
0.48829181
0.52513052
0.55667528
0.58081488
0.59592887
0.041046219
0.056342631
0.079033019
0.10537332
0.13287549
0.16004208
0.18608807
0.21037103
0.23166857
0.24791284
0.25509438
0.24068609
0.19431314
0.27993572
0.12564539
0.060302836
0.040191021
0.048355477
0.032640488
0.26274272
0.1978424
0.23355514
0.25970383
0.28215864
0.30588102
0.3327614
0.36320028
0.39673172
0.43205116
0.46715784
0.4996266
0.52708913
0.54786499
0.56050284
0.040181297
0.054233354
0.075344347
0.1002106
0.12641552
0.15225516
0.17674685
0.19922483
0.21842245
0.23237702
0.23769652
0.22452719
0.18403185
0.13726941
0.16443784
0.087321443
0.049643091
0.027134135
0.044040422
0.042479922
0.035337579
0.22212296
0.32463617
0.20690476
0.23685093
0.25952044
0.27972024
0.30107289
0.32518196
0.35244522
0.3824089
0.4138215
0.4448116
0.47314392
0.496797
0.51443251
0.52477784
0.039972695
0.052815894
0.072389359
0.095847858
0.12087026
0.14554809
0.16859939
0.18920789
0.20609959
0.21741712
0.22017226
0.20634746
0.17053057
0.13132476
0.10199279
0.080942909
0.068953622
0.033485252
0.013149886
0.022915206
0.037800906
0.04412595
0.079714077
0.25213382
0.18104783
0.21232962
0.23755852
0.25745401
0.27562673
0.29475943
0.31622329
0.34041325
0.36690862
0.3945463
0.42158874
0.44596802
0.46601367
0.48064165
0.4887693
0.040503152
0.052237311
0.070362211
0.092470619
0.11633431
0.13984563
0.16133732
0.17981896
0.19407445
0.20235262
0.20197446
0.18697862
0.15573766
0.12330649
0.099484319
0.086171984
0.085102301
0.086438412
0.074979745
0.036718215
0.060673779
0.051880274
0.039104104
0.030843397
0.25223515
0.32143181
0.18842088
0.21470751
0.23630826
0.25395546
0.27026622
0.28729484
0.30622561
0.3274414
0.35057246
0.37456374
0.39781922
0.41841497
0.43503566
0.44673516
0.45266208
0.041830726
0.052615677
0.069424969
0.090215721
0.11282516
0.13494846
0.1545547
0.17054539
0.18177441
0.18670149
0.1831939
0.16724809
0.14045852
0.11498902
0.098373493
0.092146606
0.095471876
0.10458701
0.11256936
0.14074966
0.11048181
0.055708894
0.10162627
0.086908103
0.075926643
0.077033693
0.16735172
0.26384187
0.1633485
0.19256236
0.21491763
0.23366832
0.24938426
0.26396822
0.27899871
0.29550438
0.31385162
0.33373088
0.35420295
0.37382958
0.39085937
0.40425186
0.41318083
0.41703088
0.043966299
0.054007687
0.069662386
0.089120372
0.11024003
0.1305287
0.14781908
0.16092155
0.16886628
0.17039375
0.16401184
0.14787493
0.12588909
0.10751925
0.098044087
0.097945399
0.10516764
0.11573282
0.12721348
0.1435036
0.21462552
0.21861153
0.32846848
0.18195117
0.11615791
0.12421934
0.065860801
0.024913251
0.1970639
0.14035257
0.17095758
0.19446393
0.21369903
0.23012155
0.24411305
0.25705775
0.27017879
0.28436341
0.29995768
0.31671361
0.33380677
0.34996265
0.36371645
0.3742037
0.38066575
0.38262708
0.046864293
0.056376599
0.071030015
0.089076151
0.10835827
0.12630305
0.14079031
0.15069878
0.15525928
0.15363
0.14506578
0.12989225
0.1129829
0.10124465
0.09794071
0.10261252
0.11226527
0.1234574
0.13442854
0.1456184
0.15799288
0.16949229
0.24216714
0.14622771
0.13043197
0.12914507
0.14219518
0.11141805
0.054308817
0.14696762
0.28581746
0.15237148
0.17577115
0.19502594
0.21166044
0.22606576
0.2384681
0.24983483
0.2611233
0.27309022
0.28606041
0.29984737
0.31374376
0.32667105
0.33751419
0.34555755
0.34996773
0.35040374
0.050453896
0.05960394
0.073344995
0.089823007
0.10686229
0.12198263
0.13328048
0.13986381
0.14121048
0.13699097
0.12722746
0.11406275
0.10200747
0.095881773
0.097361374
0.10495909
0.11571854
0.12707975
0.13788345
0.14785655
0.15628011
0.1608976
0.16086148
0.15196165
0.14493514
0.14112667
0.14126963
0.13558596
0.14027632
0.094251072
0.029675103
0.23689595
0.14203937
0.16126233
0.17918424
0.19499273
0.20929555
0.22186748
0.23274172
0.24256973
0.25209254
0.26194618
0.27243652
0.28343816
0.29437354
0.30441481
0.31285314
0.31897921
0.32184934
0.32118198
0.054695769
0.063543609
0.076339117
0.091014123
0.10542705
0.1173658
0.12530765
0.12866796
0.12721882
0.12109942
0.11123181
0.10055258
0.092724069
0.090875655
0.09543455
0.10439429
0.11534942
0.12658445
0.13751554
0.14805213
0.15778576
0.16399675
0.16512126
0.16309569
0.16024152
0.15744955
0.15434128
0.1486795
0.14531015
0.16255179
0.11717737
0.064646626
0.018247503
0.17408528
0.31711663
0.15494202
0.16852387
0.18201169
0.19485504
0.20698534
0.21782212
0.22719101
0.2355022
0.24331563
0.25115923
0.25932615
0.26775647
0.27603422
0.28366412
0.29025075
0.29501481
0.29684186
0.29547059
0.05963708
0.068101122
0.079770608
0.0923526
0.10384335
0.11243381
0.11709046
0.11753382
0.11384755
0.10652097
0.097371661
0.089129161
0.084616862
0.085653653
0.091740045
0.10099459
0.11157358
0.12243093
0.13341373
0.14471782
0.15587804
0.16444401
0.16840312
0.17016307
0.17068093
0.16989192
0.1669842
0.16072675
0.15186214
0.14176886
0.12667696
0.13164343
0.079274454
0.054545011
0.22568448
0.15281534
0.16580451
0.1749869
0.18479501
0.19497528
0.20504765
0.21418204
0.22204193
0.22883918
0.23498456
0.24091739
0.24692647
0.25303539
0.25903437
0.26478697
0.2700708
0.27396845
0.27516475
0.2734214
0.065453064
0.073321623
0.083559805
0.093748159
0.10213465
0.10740529
0.10902071
0.10696636
0.10152913
0.093729935
0.085600894
0.079436539
0.077236075
0.079882939
0.086414835
0.095296823
0.1051756
0.11546811
0.1263021
0.13803048
0.15012207
0.16067444
0.1676923
0.17319099
0.17731601
0.17927014
0.17782894
0.17191888
0.16194379
0.1488157
0.133
0.11619277
0.095753874
0.093183913
0.042995553
0.011451027
0.14113717
0.29240908
0.16608836
0.1752348
0.18115763
0.1879082
0.19566519
0.20374556
0.21117428
0.21749461
0.22275919
0.22725977
0.23137063
0.23539426
0.23946593
0.24362061
0.24801767
0.25247216
0.25588624
0.2567495
0.25488314
0.072462592
0.079450384
0.087896538
0.095421707
0.10062573
0.10273171
0.10161458
0.097447706
0.090738642
0.082919111
0.075781304
0.071164001
0.070367295
0.07363393
0.079930281
0.088063762
0.097088611
0.10671729
0.11725906
0.12909012
0.14194356
0.15431131
0.16467305
0.17423986
0.18248074
0.18794024
0.1888666
0.18398685
0.17377128
0.15936099
0.14215317
0.12305021
0.10196054
0.079753754
0.055403775
0.040262898
0.017747746
0.050352954
0.17990191
0.15456811
0.17655905
0.18358471
0.1873156
0.19161732
0.19717549
0.20330924
0.20900595
0.21372923
0.21741207
0.22026605
0.2226319
0.22484664
0.22718999
0.22994467
0.23343738
0.23742192
0.24060857
0.24132792
0.23950446
0.081121185
0.086953367
0.093276044
0.097926961
0.099938545
0.099052304
0.095459278
0.089417779
0.081879898
0.074160725
0.067797159
0.064156488
0.064012946
0.067232372
0.072892495
0.080099972
0.088227167
0.097179731
0.10736161
0.11918129
0.13285022
0.14721276
0.16128496
0.17529589
0.18818546
0.19785515
0.20193881
0.19870746
0.18848654
0.1727692
0.15360528
0.13214064
0.10900546
0.085082802
0.061351678
0.042242262
0.043301775
0.097269862
0.12535309
0.16586516
0.18463842
0.19098586
0.19354835
0.19605864
0.19967799
0.20392819
0.20786316
0.21090849
0.21293161
0.2141092
0.2147874
0.21536962
0.21629255
0.21804562
0.22098992
0.22474429
0.22785146
0.22853413
0.22684356
0.091997186
0.096498954
0.10046623
0.10210447
0.10093002
0.097138249
0.09112427
0.083450148
0.075210572
0.067510601
0.061598621
0.058412359
0.058352419
0.061106747
0.065921602
0.072149227
0.079397397
0.08769929
0.097527699
0.1093768
0.1240201
0.14070195
0.15876248
0.17754239
0.1955162
0.20998076
0.21791664
0.21695674
0.2071257
0.19009878
0.16854184
0.14414406
0.11903293
0.094160654
0.069481642
0.052814911
0.06083586
0.092048742
0.13660972
0.17256153
0.19054863
0.19740634
0.19977959
0.20119643
0.20323477
0.2057298
0.20788899
0.20916159
0.20941897
0.20886955
0.20789989
0.20701062
0.20679914
0.20787927
0.21053111
0.21418789
0.21729169
0.21798883
0.21646774
0.10570757
0.10887113
0.11040373
0.10897066
0.104588
0.097843025
0.08930676
0.080038459
0.070982842
0.063065512
0.057228884
0.054049911
0.053665836
0.055708384
0.05959168
0.064857632
0.071272345
0.078968747
0.088534989
0.10062939
0.11635852
0.13546215
0.15747917
0.18119514
0.20453178
0.22423412
0.23668355
0.23878827
0.23006243
0.21209044
0.18800134
0.16032167
0.13299951
0.10616283
0.079888517
0.063475202
0.071584807
0.10174025
0.1421074
0.17578532
0.19452668
0.20276503
0.20579792
0.20685045
0.20777629
0.20873962