/*--------------------------------*- C++ -*----------------------------------*\
  =========                 |
  \\      /  F ield         | OpenFOAM: The Open Source CFD Toolbox
   \\    /   O peration     | Website:  https://openfoam.org
    \\  /    A nd           | Version:  8
     \\/     M anipulation  |
\*---------------------------------------------------------------------------*/
FoamFile
{
    version     2.0;
    format      ascii;
    class       volScalarField;
    location    "7200/air";
    object      k;
}
// * * * * * * * * * * * * * * * * * * * * * * * * * * * * * * * * * * * * * //

dimensions      [0 2 -2 0 0 0 0];

internalField   nonuniform List<scalar> 
167754
(
0.10843338
0.10670043
0.097880908
0.084523019
0.069491097
0.055352151
0.043860694
0.035709799
0.030630814
0.027826429
0.026491585
0.026116432
0.026593304
0.028307012
0.032339301
0.040520415
0.054913228
0.076702396
0.10510686
0.13692097
0.16730493
0.19199814
0.20843126
0.21599348
0.21432495
0.20280489
0.18219662
0.15621024
0.12976166
0.10874978
0.090589078
0.074833226
0.061656417
0.051138079
0.043154412
0.037378085
0.033363441
0.030646344
0.028817707
0.027561389
0.026660711
0.025989643
0.025509949
0.025308691
0.025939052
0.029055438
0.038072794
0.056995189
0.086872693
0.12529464
0.16877938
0.21417615
0.25910973
0.30161261
0.33969702
0.37107079
0.3930289
0.40253548
0.39683193
0.39134945
0.38624423
0.36088202
0.32074439
0.27173783
0.21985348
0.17058235
0.12834217
0.095941057
0.074256238
0.062557042
0.05974765
0.065923615
0.083359204
0.11613807
0.1681523
0.24011921
0.327788
0.42251127
0.51334313
0.58983647
0.64585145
0.67975511
0.69350173
0.68756052
0.66030305
0.61329265
0.55442281
0.49358723
0.44203223
0.39246357
0.34356488
0.29589496
0.25044906
0.2085618
0.17166072
0.14075342
0.11603008
0.096903584
0.082362757
0.071359391
0.063110994
0.057379755
0.055073609
0.060591567
0.085093815
0.13899784
0.22169613
0.32176178
0.42699495
0.53091612
0.62876718
0.71847657
0.799126
0.86924304
0.92619038
0.96605016
0.98397662
0.97487763
0.82140281
0.81258593
0.77236493
0.70800574
0.62698965
0.53697821
0.44538454
0.35917462
0.28473554
0.22770766
0.19269039
0.1830867
0.20161938
0.25078928
0.33202583
0.44302528
0.57620673
0.72024061
0.86287402
0.99282719
1.0988921
1.1626993
1.1942565
1.2110963
1.208453
1.1754756
1.1127891
1.0389624
0.96605705
0.90353801
0.8420346
0.77909855
0.71258672
0.64150509
0.56747386
0.49396761
0.42474865
0.36261151
0.30904003
0.26434547
0.22807266
0.19984994
0.18070276
0.1754577
0.19687888
0.26470161
0.38668486
0.54581819
0.71517033
0.87585439
1.0205793
1.1485662
1.2619206
1.3625462
1.4503541
1.5226537
1.5743537
1.5988615
1.5892562
1.2947389
1.282428
1.2316137
1.1506496
1.0479325
0.93203324
0.81124664
0.69358375
0.58716838
0.50089562
0.44445385
0.42668483
0.45363692
0.52627224
0.6398089
0.7839143
0.94412233
1.1048857
1.254411
1.4014274
1.2816488
1.3539106
1.7793594
1.8291082
1.8826185
1.8770057
1.7908518
1.6814106
1.5569176
1.4308264
1.3146489
1.2113775
1.1341459
1.0587683
0.97748982
0.89116762
0.80352526
0.71890452
0.6410376
0.57225476
0.51364326
0.46687039
0.43667298
0.43412129
0.4789101
0.59079618
0.76694347
0.97683898
1.1853322
1.3715696
1.5302462
1.6649245
1.7820068
1.8864772
1.9796561
2.0586406
2.1169914
2.1463443
2.1382275
1.7423869
1.7268284
1.6689903
1.5777777
1.4621902
1.3314346
1.1944089
1.059685
0.93612465
0.83417786
0.7659857
0.74139083
0.76710818
0.84319332
0.96178663
1.1075822
1.2605484
1.4082008
1.3291639
1.402358
1.4149686
1.5761264
1.8327676
2.8875166
1.8848655
3.1584751
3.0285995
2.8999147
2.6203569
2.3287899
2.0776706
1.84667
1.6460382
1.4822285
1.3466888
1.2459591
1.1578046
1.0719291
0.99052655
0.91694473
0.85333589
0.80309416
0.77420891
0.78232858
0.84959872
0.99176729
1.198047
1.4318059
1.6547357
1.8452065
1.9994744
2.1246594
2.2312301
2.3274229
2.4161926
2.4945616
2.5548147
2.5869185
2.5811199
2.1290012
2.1105647
2.0486053
1.9520351
1.8300889
1.692254
1.5476516
1.4048859
1.2726564
1.1623042
1.0885851
1.0588022
1.0774469
1.1442996
1.2520226
1.386201
1.5481155
1.42893
1.3753086
1.1980972
0.73259426
0.63604596
2.4106629
2.6345064
2.3876003
2.5104774
2.5707525
2.6099564
4.2001029
3.8371314
3.4512487
2.9333932
2.4637865
2.0891302
1.8056072
1.6065735
1.4664187
1.3648739
1.2925513
1.2292886
1.1737032
1.1303135
1.1101422
1.132271
1.2191673
1.3821881
1.6053883
1.8495987
2.0752299
2.259843
2.4004626
2.5070255
2.593928
2.6730262
2.7494737
2.8207323
2.8782023
2.9104886
2.9069412
2.4380334
2.4173611
2.3540121
2.2562447
2.1330442
1.9936346
1.8467028
1.7000165
1.5609217
1.4408942
1.3613625
1.3304896
1.3452406
1.4045324
1.5106455
1.6659478
1.5064605
1.3508393
0.9306182
0.28062582
1.129271
3.634185
3.4220712
1.3248831
1.7696878
2.7717492
3.1929066
3.3270714
3.2411321
3.0468175
4.2207883
3.6571063
2.9831404
2.4570737
2.07186
1.8083733
1.644848
1.5480809
1.487112
1.4482867
1.4145866
1.3992028
1.4280812
1.5273288
1.705581
1.9419619
2.1941223
2.4206077
2.5976219
2.7222891
2.8067391
2.8691263
2.9252874
2.9832814
3.0417777
3.0919491
3.1216642
3.119901
2.6643654
2.642141
2.5798752
2.4845629
2.3643005
2.2272816
2.0809956
1.9318059
1.7864966
1.3143837
1.5649077
1.5415
1.5659543
1.6400778
1.7861341
1.6266603
1.4391199
0.52987139
4.0081141
4.700085
2.4477739
1.2002227
2.1267966
3.1384928
3.4016191
3.3564475
3.0605285
3.9001782
3.3822362
2.8131303
2.3076636
1.9891294
1.8153187
1.7280291
1.681798
1.6491233
1.6323391
1.6539826
1.7515156
1.9369271
2.1849577
2.4473205
2.6780346
2.85071
2.9619153
3.0252659
3.0622469
3.0927846
3.1284341
3.169917
3.2091628
3.2345356
3.2373766
2.8156812
2.7902458
2.7286453
2.6381819
2.523894
2.3917458
2.2463058
2.09362
1.5725521
1.3684198
1.3344832
1.3597063
1.7787975
1.8678205
2.062623
1.745482
1.1325439
5.1816979
5.2310827
1.0961588
1.2046794
2.075834
2.8156841
2.8963457
2.7500041
2.4694994
2.9771989
2.5505506
2.2415151
2.0246048
1.9019424
1.8373096
1.8030534
1.8076579
1.8900305
2.0704913
2.3256308
2.6005971
2.8408619
3.0152991
3.1189725
3.1659848
3.1805283
3.1863625
3.1987528
3.2212983
3.2483871
3.2723179
3.2777111
2.8955409
2.8702999
2.8120504
2.7243346
2.6164122
2.4896518
2.3435617
2.1887311
1.5531409
1.1593797
0.60629195
1.1700608
1.475613
1.6327424
1.8315065
1.9089237
0.67722222
1.9767951
5.8154425
3.8379261
1.2161428
1.766789
2.2708205
2.3733083
2.327343
2.2492129
2.3742267
2.0873228
1.9442864
1.8869881
1.8725324
1.9407924
2.1066713
2.362522
2.6494646
2.9033038
3.0864734
3.1913139
3.2304288
3.2296194
3.2159519
3.2081393
3.2135393
3.232676
3.2511379
3.2563885
2.9108648
2.8876225
2.8362638
2.7562473
2.6533352
2.5304702
2.3914735
1.8820637
1.4096188
0.48309622
0.7903626
1.6264333
2.05968
2.0887627
5.2548778
5.8342795
1.6576045
1.1159516
1.7681566
2.1067075
2.1306312
1.9958605
1.7798686
1.8044058
1.8540283
1.8833896
2.0524154
2.3033437
2.5963473
2.8596854
3.0576323
3.1735131
3.2157103
3.210738
3.1881905
3.1687928
3.166356
3.1773721
3.1890921
3.1928593
2.8760475
2.8549861
2.8110952
2.7397157
2.6428342
2.5167358
2.0028103
1.6597516
0.9158284
0.55794547
1.5196618
1.5263742
5.750628
4.2344052
1.1515699
1.2602299
1.4902438
1.6745596
1.5753974
1.6362574
1.7801611
1.9710469
2.4542091
2.7385215
2.9433931
3.0709689
3.1248903
3.1282549
3.1119843
3.0966439
3.0933053
3.0988017
3.1050453
3.106779
2.810461
2.7902272
2.7517238
2.686395
2.5919567
2.4632571
1.795144
1.3577447
0.80049511
1.8087929
5.4709907
1.8100907
0.83548255
1.4480881
1.1270321
0.77654725
0.84376953
1.2983068
1.8461074
2.1614225
2.3584916
2.8799674
2.966056
2.989301
2.9963896
3.0001225
3.0065485
3.0132755
3.0168384
3.0164266
2.7367364
2.7150012
2.6774584
2.6118123
2.5098947
2.0453065
1.5992656
0.84082613
0.48062867
4.7148302
3.5886381
0.75694625
1.0059909
0.27106082
0.58701938
1.273749
1.599137
2.0847613
2.2943968
2.3734506
2.8083413
2.8764539
2.9164872
2.9364456
2.9408962
2.9380259
2.6802494
2.6544879
2.6120168
2.5365355
2.4086662
1.7452871
1.263085
4.5740313
4.8114026
1.7691977
0.17958134
0.62136515
0.40294305
0.35348589
0.7326753
1.3718239
1.6623922
2.1000053
2.3535871
2.8342054
2.8833262
2.891388
2.8849054
2.6682809
2.6371008
2.5839182
2.4881335
1.9985828
1.5254861
0.63722192
1.9124151
4.8660135
3.0768595
0.45989328
0.5901129
0.19900632
0.45350907
1.124315
1.8735576
2.3958144
2.8827339
2.881802
2.867228
2.7275129
2.6937923
2.6303519
2.5035751
1.767022
1.2290922
4.5677816
4.4828052
1.9397647
0.59258987
0.55805098
1.2425948
2.3055569
2.9432278
2.9192091
2.8906229
2.8773251
2.853551
2.8169082
2.2046413
1.7866602
0.74640951
2.4111814
4.5470754
3.6516027
0.35375409
0.61838777
0.41886162
0.6431278
2.4423527
3.039064
2.9988711
2.9543065
3.1173448
3.1133364
3.1174491
2.3659686
2.0472721
1.4297813
4.3571121
4.1374937
1.9915289
0.53234499
0.57157886
0.1829613
0.98996652
2.5103458
3.1567472
3.1132566
3.0546973
3.4229606
3.4391503
3.4617608
2.6453467
2.4429299
0.77532588
3.7973936
4.2954671
3.4361214
0.78140473
0.53626516
0.41547697
1.7699989
3.1961816
3.278843
3.2531916
3.1863321
3.7536804
3.7838108
3.7965971
3.8544699
2.8323088
1.5437025
1.527755
4.2937066
3.9722974
2.0494187
0.33619759
0.48568303
0.37054435
1.9266681
3.3151532
3.4160864
3.41084
3.340949
4.0675851
4.1033924
4.1144593
4.1590067
3.1946354
2.4276075
3.9470889
4.3393192
3.6969544
1.1263016
0.24558786
0.64217715
0.45045931
2.1714117
3.4561489
3.568034
3.5787702
3.508537
4.3252366
4.3388691
4.35269
4.3951196
3.3531457
2.989193
0.62330482
1.9144581
4.4473911
4.2243002
3.4564887
2.0896969
1.4245445
1.2953943
1.2517576
1.1493032
0.91098675
0.65035276
0.40943949
0.27760922
0.29644939
0.38859991
0.43330912
0.4085294
0.3853831
0.41754134
0.48810921
0.55346031
0.60283445
0.69892868
0.84522785
1.0406105
1.048264
0.88666596
0.37991344
2.3998688
3.6123214
3.7281765
3.7489877
3.6785376
4.4649166
4.4539544
4.4751624
4.5123364
4.6043739
3.398692
1.193506
4.2408058
4.5790314
4.0669651
2.9634899
2.5330943
1.6162396
1.4521911
1.2571822
0.93743832
0.60208962
0.39149701
0.22703467
0.21469174
0.29310358
0.30925565
0.40857797
0.46043163
0.50295396
0.57291288
0.54196988
0.59527178
0.59671467
0.78968205
1.1819467
1.5139071
1.3863144
1.0178111
0.50749199
0.43760676
2.5992367
3.7724883
3.8844471
3.9114861
3.8401359
4.4860611
4.4670859
4.4924538
4.5480604
4.6755787
3.6950721
2.1151619
2.3341541
4.7731906
4.5633999
3.9274079
2.5862487
2.3728907
2.3350736
1.9466295
1.0781429
0.071474544
0.11753175
0.08980981
0.28305809
0.45884313
0.33030075
1.0206544
1.3781381
1.2128336
1.0129147
0.64145844
0.58841712
2.7477336
3.9153832
4.0225886
4.0543084
3.9834817
4.4310477
4.4015506
4.4303688
4.5070035
4.6838959
3.8632969
3.2477388
1.2584514
4.7583924
5.0378045
4.5284817
3.8622861
1.3032664
0.55002341
0.99836248
0.5483245
0.32795411
0.19472051
0.05676857
0.11237429
0.19451275
0.22423878
0.24868988
0.2507644
0.21849963
0.21498216
0.2034501
0.35569156
0.70791172
0.63060908
0.67951195
0.65522731
0.69599644
0.74931683
1.0572418
0.95178845
0.72830143
0.92242687
2.7403929
4.017899
4.1304656
4.1672391
4.0998231
4.2649982
4.2309036
4.2715852
4.37521
4.580334
3.7822013
3.6622099
0.99293058
4.099381
5.4430985
4.570584
4.1762363
3.8684783
3.3883664
2.4618348
0.72800163
0.42120522
0.79999279
0.94529695
0.9818919
0.95268933
0.88322364
0.79096963
0.7021075
0.63488342
0.73002035
0.81328841
0.73573777
0.5121882
0.74559719
0.93448649
0.77075704
0.72364144
0.85429682
0.59928406
1.0472827
2.7175536
4.083418
4.2028464
4.2457727
4.1843536
3.981172
3.9551496
4.0161506
4.1511617
4.3720488
4.6986182
3.8914504
2.6184858
1.0155819
5.0729863
6.0558104
4.4254657
3.438897
2.6199537
2.4271946
2.1635176
1.6873402
1.0462902
1.592122
2.3539076
2.1979447
1.9876055
1.7580595
1.5185583
1.2738087
1.0433179
0.8594435
0.75496838
0.72689715
0.71384993
0.32644423
0.97979336
1.0017995
0.84090159
0.63362939
0.73709174
0.29697846
2.1194187
3.9430015
4.1093519
4.2435519
4.29279
4.2392885
3.6036874
3.5962584
3.6834733
3.8517467
4.0987083
4.4161815
4.7820049
3.6612815
2.7258635
0.68631138
3.8773365
5.5631134
5.2243677
4.0746241
2.2714197
2.5999291
2.8353234
3.3556157
2.9845806
2.6399528
2.3112634
1.9952739
1.6947269
1.4176044
1.1768894
0.98738931
0.75922854
0.67024201
0.47961048
1.3544588
1.8178366
1.6508455
1.4897236
1.2918162
0.2739524
2.2322001
3.9413406
4.1219209
4.2627154
4.3203256
4.2796313
3.1746629
3.1905956
3.3062002
3.5068603
3.7829736
4.118537
4.4862425
4.8227564
3.6193782
3.361101
6.5062405
7.24249
6.0174196
5.0914821
2.5194234
1.5159362
3.3044842
3.9932235
3.5421018
3.1506024
2.7885445
2.4486564
2.1268523
1.8196514
1.5306493
1.2695788
1.0498869
0.79199067
0.6626139
0.5103018
1.6405969
1.8508408
2.2108987
2.0887946
2.1264937
2.0505488
1.5395681
0.85856893
2.3046668
3.9476162
4.1318625
4.2783062
4.3471409
4.3235973
2.7390827
2.7777305
2.9202016
3.1499908
3.45415
3.8151242
4.2079627
4.5984079
4.9971468
5.5669444
5.2491817
5.8003219
5.7415681
5.2946495
2.9136619
3.3137168
4.5231677
4.0797573
3.6715071
3.2911224
2.9301043
2.5822941
2.2534929
1.9390417
1.639344
1.3614571
1.117099
0.83155082
0.65298842
0.51185201
1.3467448
1.5469025
1.5202606
1.6146552
2.0999638
2.5494846
2.3375708
2.2417859
1.9532191
1.3075303
0.64429733
0.33188308
2.3380864
3.9358512
4.1253933
4.2804503
4.364243
4.3600578
2.3309852
2.3900178
2.5555023
2.8091174
3.1366471
3.5207729
3.9394262
4.3671987
4.805012
4.5110709
4.6924388
4.4120887
5.4255316
5.310884
3.1218587
3.4277343
4.5412654
4.1482438
3.7681802
3.3994768
3.0411844
2.6929069
2.3596906
2.039987
1.7318655
1.4397814
1.1741556
0.86987974
0.63826953
0.45271415
1.4181959
1.6189918
0.90592111
0.3125865
0.95003354
1.8776543
2.1075655
1.9954814
1.7666748
1.4332957
0.78202303
0.32681947
0.37332037
2.3219253
3.8953958
4.0984078
4.2669546
4.3691605
4.3853134
1.9703039
2.048492
2.2320507
2.5032541
2.8475487
3.2483186
3.6855275
4.1373323
4.6072159
4.1165787
4.5518901
3.636976
3.9422926
5.1537393
3.3226466
3.419535
4.5269297
4.1792888
3.822587
3.4649017
3.1105633
2.7622648
2.4273614
2.101255
1.7824198
1.4744534
1.1905779
0.88966624
0.63982166
0.31469383
0.49210025
1.243026
1.2542032
0.92822865
0.33732702
0.64229787
1.1927491
1.3036763
1.3840253
1.2326778
1.0511663
0.52811716
0.19812369
0.61033812
2.2906867
3.8231698
4.0543932
4.2414105
4.3640031
4.4001947
1.6811683
1.7686401
1.9612123
2.2422213
2.5959797
3.0059235
3.4526348
3.9165143
4.4064399
4.0334871
4.3981711
3.048429
3.6513844
3.8212085
3.1295806
3.2516486
4.4186119
4.1318998
3.7918873
3.436307
3.0792224
2.7298229
2.3787241
2.0309142
1.6923693
1.3694826
1.0825987
0.80829323
0.59870205
0.58998693
0.54351765
1.0621663
1.0479047
0.77137558
0.35824838
0.71925098
0.87937383
1.1648589
1.0792838
1.4357453
3.3424668
3.7374579
4.0041287
4.2109637
4.3536412
4.4086504
1.4627546
1.5565238
1.7493165
2.0329495
2.3874455
2.7952348
3.2425894
3.7068674
4.1848872
4.7640427
4.2209749
2.8801653
2.3040136
4.0631472
3.0799014
2.9351044
3.5189009
3.5836195
3.4102645
3.1176661
2.7483447
2.3140768
1.8254492
1.3424927
0.94230038
0.65863615
0.49193512
0.44558515
0.54533884
0.81114713
0.87263382
0.97025136
0.79152554
0.33286233
0.99438844
1.5938954
3.3176104
3.6829369
3.9614156
4.1835572
4.3437722
4.4156484
1.2932005
1.3973548
1.5916003
1.8717597
2.2228855
2.6219693
3.0548413
3.5069649
3.9637864
4.4475582
4.0052293
3.5282489
2.1157248
3.7667725
3.9969655
3.785636
3.7396139
3.7235422
3.6612368
3.5476705
3.2829252
3.1677096
2.9279665
2.4272799
1.6635103
0.91134672
0.46187192
0.37339941
0.34516812
0.27288757
0.249536
0.35222778
0.50851924
0.87236495
1.2684019
0.94165386
0.65473038
0.71942004
1.9236407
3.3317433
3.6568589
3.9324525
4.1641215
4.3385981
4.4252533
1.1603084
1.2770488
1.4753976
1.7511197
2.0953485
2.480665
2.8931884
3.3192509
3.7466205
4.1653957
3.7861558
3.5486528
1.9981295
2.5238344
3.2861965
3.8710851
4.0024714
3.9967938
3.8913023
3.6653583
3.2659551
2.7726427
1.5928679
0.91287778
0.47300305
0.19934904
0.16666395
0.27809677
0.25966974
0.17957668
0.17032814
0.24055445
0.33406632
0.71507137
1.1355812
0.79226413
1.4468112
2.8655138
3.3298981
3.6413216
3.9137928
4.1527949
4.3392891
4.439072
1.0570335
1.1840412
1.3899858
1.6621826
1.9962856
2.3642032
2.7521902
3.1482314
3.5373508
3.9093303
3.6042606
3.4774593
2.0389476
1.9978785
2.5421127
3.0439781
3.4371838
3.5873996
3.551817
3.3592109
2.8797917
1.90521
1.0283172
0.43733497
0.24571764
0.19301281
0.23991042
0.41201204
0.1045671
0.067529827
0.085397563
0.25906447
0.48161872
0.6108848
0.6200685
0.32702849
0.61744582
1.7653207
2.9371431
3.3269225
3.6281341
3.9016176
4.1476322
4.3442238
4.4554998
0.97638803
1.1128793
1.3264864
1.5955248
1.9170205
2.2649528
2.626152
2.989997
3.3421416
3.6640546
3.9050221
3.3351693
2.3976077
2.0117982
1.6544476
1.6955135
2.3399953
2.6774379
2.7223537
2.789194
2.55891
1.1603371
0.51394124
0.32833705
0.35830594
0.3013414
0.3465927
0.37036288
0.18192402
0.13282012
0.11968605
0.49547933
0.66508949
0.60706532
0.32910436
0.27254126
1.3918718
2.5356645
2.9824432
3.324327
3.6184027
3.8941813
4.1453981
4.3490454
4.4694136
0.91223652
1.057744
1.2775892
1.5427765
1.8500536
2.176448
2.5100357
2.8416469
3.1585642
3.4398522
3.6323358
3.1074067
2.184488
1.6315253
1.5316868
1.549053
1.5661198
1.7278869
2.0314813
2.0124423
1.858658
1.5625954
1.1581088
0.84162109
0.60683255
0.43754802
0.3587771
0.35087472
0.33680081
0.26285156
0.24644169
0.51453637
0.67936371
0.65641888
0.12834963
1.0713879
2.190493
2.6421096
3.0109229
3.3233818
3.6120726
3.888245
4.1407991
4.3466891
4.4723296
0.85971047
1.0133116
1.2375369
1.4978285
1.7897438
2.0940259
2.4003539
2.7011281
2.9856489
3.2335518
3.3865989
2.9020495
2.1400012
0.81541404
0.61108037
0.53364515
0.47700311
0.48617677
0.60362029
0.71883106
0.80172931
0.83681842
0.74438614
0.52998121
0.28394018
0.081656497
0.051455121
0.075515663
0.099163657
0.10683947
0.089469407
0.49960806
0.71234725
0.86872786
0.52475462
0.38224565
1.4802136
2.3431742
2.7093857
3.0294995
3.3227581
3.6054974
3.8780552
4.1263865
4.3284056
4.4547377
0.81528592
0.97546278
1.2020283
1.456371
1.7322997
2.0147464
2.2949193
2.5667565
2.8215223
3.0414219
3.1718531
2.8698505
2.1429459
0.12297977
0.38738251
0.53524666
0.67685186
0.83365322
0.77185632
0.23668228
1.2030663
2.0842569
2.4438605
2.752593
3.0407199
3.3190239
3.593149
3.8569853
4.0951309
4.2872541
4.40927
0.77663322
0.94132231
1.1680881
1.4155622
1.675565
1.9371197
2.1928196
2.4377819
2.6647127
2.8579038
2.9631741
2.7576618
1.6978076
0.044482394
0.24833281
0.23395814
0.16445443
0.65944931
0.74517477
0.8295675
0.50554041
0.56030084
1.5723526
2.2122097
2.508059
2.7789694
3.0440267
3.3079993
3.5699262
3.8201757
4.0431375
4.2209555
4.3349404
0.74236835
0.90913254
1.1339777
1.3739277
1.6187411
1.8609254
2.094339
2.3149789
2.5165315
2.6849348
2.76796
2.6082434
1.8490237
0.41234089
0.22774418
0.25381562
0.20133793
0.36514807
0.75044552
0.70854879
0.72689361
0.3085241
1.3328187
2.0173051
2.2993151
2.5487385
2.7918392
3.0375289
3.286169
3.5327181
3.7658443
3.9707368
4.1322208
4.2364179
0.71181101
0.87807146
1.099009
1.3310559
1.5619431
1.7867377
2.000504
2.1999448
2.3795503
2.5268424
2.5971845
2.3447178
1.9011094
0.8351222
0.1997067
0.29978716
0.24398354
0.10788675
0.4606388
0.60504451
0.69455957
0.56099804
0.26749938
0.80455836
1.6735182
2.1275785
2.3551329
2.5714965
2.7920136
3.0196589
3.2517307
3.4808175
3.6951222
3.8810655
4.0258767
4.1196859
0.68478561
0.84803719
1.0632834
1.2872464
1.505784
1.7155005
1.9125381
2.0942641
2.2558298
2.3861864
2.4485133
2.2718042
1.9312149
1.2494495
0.10424961
0.39373341
0.35037033
0.22561052
0.52546072
0.61441421
0.6679887
0.55192652
0.22508597
0.50739388
1.5054221
1.9920342
2.2003639
2.3878618
2.578772
2.7795931
2.9897515
3.2045476
3.4153542
3.6105907
3.7779317
3.9066776
3.9897608
0.66146441
0.81942336
1.0274154
1.2432068
1.4512687
1.6482316
1.8314975
1.9989461
2.1462117
2.2634575
2.3213179
2.1972372
1.9397742
1.2687075
0.39245388
0.43660273
0.32987045
0.11104187
0.21953047
0.57754347
0.69403565
0.66379174
0.40637645
1.3572675
1.8504266
2.0757936
2.2412052
2.4014225
2.5719623
2.755017
2.9481854
3.1456236
3.3382411
3.5149838
3.6647116
3.7785534
3.850906
0.64225939
0.79296772
0.99236478
1.199961
1.3993208
1.5858775
1.7580605
1.9141552
2.0499967
2.1566121
2.2108258
2.1227428
1.9250528
1.4034291
0.54913056
0.33044357
0.44922539
0.41442033
0.25307827
0.3116702
0.71079836
1.2125818
1.6877969
1.9427492
2.1177757
2.2574231
2.3988175
2.5524901
2.719262
2.8960332
3.076443
3.2514364
3.4106264
3.5440076
3.6443643
3.7067772
0.62779836
0.76970308
0.95940149
1.1587726
1.350774
1.5291787
1.6924238
1.8391383
1.9650076
2.0615728
2.110174
2.0440953
1.786325
1.4558244
0.85829363
0.24509176
0.40094612
0.44685889
0.33898283
1.3532935
1.7788261
1.9857962
2.1323845
2.2559924
2.3831408
2.522171
2.6737469
2.8346872
2.9985641
3.1566659
3.299295
3.4175523
3.5056585
3.5590503
0.61887276
0.75088489
0.9300531
1.1211433
1.3067139
1.4786253
1.6342909
1.7723414
1.8881142
1.9734872
2.012569
1.951955
1.7259204
1.4223737
1.0224938
0.66758383
0.29473723
0.31714099
0.42743811
0.41011634
0.21845632
0.7678322
1.5550119
1.8325001
2.0044314
2.1312415
2.2425002
2.3573756
2.4829472
2.6200429
2.7656152
2.9134694
3.055373
3.18225
3.286305
3.3629071
3.4078436
0.61639016
0.73795044
0.90601949
1.0886926
1.2682048
1.434405
1.5828249
1.711577
1.8158442
1.8878403
1.9132166
1.8473537
1.6420783
1.3843919
1.1642745
0.98876806
0.57263489
0.33867069
0.0896269
0.18158571
0.38722428
0.42843662
0.39547736
1.315076
1.6777491
1.8642499
2.0084392
2.1198214
2.2202062
2.323747
2.4365657
2.5596636
2.6902462
2.8225293
2.948785
3.0604604
3.150888
3.2162935
3.2529381
0.62119732
0.73235373
0.88906103
1.062967
1.2361049
1.396276
1.5365282
1.6542351
1.7448491
1.8008865
1.8087985
1.7327022
1.547584
1.3282728
1.1442738
1.0263598
1.0009406
0.62474064
0.56579622
0.21313938
0.49765173
0.4664301
0.39650337
0.21346103
0.82908134
1.5448479
1.7225102
1.8779752
2.0013913
2.1004712
2.1910469
2.2839246
2.3845409
2.4940295
2.6099552
2.7270469
2.8380966
2.9349628
3.0121739
3.0664158
3.0944246
0.63382487
0.73527626
0.88071937
1.0452467
1.2108362
1.363374
1.4932849
1.597533
1.6719268
1.7093462
1.6983765
1.6122184
1.4459102
1.2656643
1.1300013
1.0656829
1.0755926
1.1406589
1.1998243
0.86895505
0.73840334
0.21561781
0.70255878
0.99697735
0.58547099
0.39189115
0.46849792
1.3531934
1.5661336
1.7472517
1.8790415
1.9864282
2.0751225
2.1566411
2.2394116
2.3282927
2.4245314
2.5261128
2.6283338
2.7245785
2.8071047
2.8715158
2.9145521
2.9340896
0.65425089
0.747268
0.88187671
1.0361113
1.1919971
1.3337243
1.4504527
1.5385261
1.5945246
1.612219
1.5821291
1.488641
1.3438413
1.2055208
1.1201239
1.1027439
1.1453652
1.22057
1.3022948
1.4124549
1.1577502
1.1720349
0.97294484
1.0405415
1.2166263
0.80306406
0.52306582
0.13808416
1.1102706
1.4132757
1.6134664
1.7581349
1.8716815
1.9661739
2.0456649
2.1186124
2.1916913
2.2692344
2.3525782
2.4401422
2.5277966
2.6095394
2.6785192
2.7307797
2.7634727
2.7746498
0.6818435
0.76799346
0.89238434
1.0350948
1.1783499
1.3055579
1.4058497
1.4753901
1.5114338
1.509271
1.4623987
1.3677212
1.2483888
1.1521036
1.1119234
1.1326062
1.1964522
1.2757748
1.3527335
1.428293
1.5088484
1.5813791
1.262089
1.4303787
1.3196068
1.3068882
0.87036817
0.74442612
0.29024447
0.58046692
1.4226467
1.4911671
1.6422915
1.7607404
1.8593641
1.9428077
2.0138243
2.0785032
2.1422033
2.2087647
2.2795957
2.3535458
2.4270644
2.4948779
2.5512749
2.592913
2.6163838
2.62025
0.71566187
0.79629859
0.91093166
1.0405705
1.1679529
1.2770639
1.3579072
1.4072782
1.4231615
1.4029467
1.3438731
1.2550725
1.1628742
1.1049586
1.1014408
1.147606
1.2217041
1.3018157
1.3766097
1.4430753
1.4970215
1.5258225
1.5249058
1.4654948
1.4155659
1.3875024
1.3921486
1.3613857
0.8785916
0.67823829
0.19870436
1.2668813
1.4177651
1.5465958
1.6619559
1.7595845
1.8449375
1.9183564
1.9811921
2.037749
2.0923036
2.1482253
2.2069823
2.2678474
2.3278841
2.3827413
2.4281916
2.4610633
2.4771672
2.4752846
0.75500085
0.83074337
0.93544415
1.0501799
1.1587129
1.2468351
1.3063252
1.3350661
1.3319871
1.2965635
1.2316818
1.1535922
1.0874052
1.060744
1.0832267
1.1428023
1.2200708
1.2993051
1.3744854
1.4439083
1.5052728
1.5435026
1.5498816
1.5359625
1.5164664
1.4985638
1.4815176
1.4497841
1.4334296
0.9760858
0.78746918
0.5299519
0.11889657
0.66826024
1.5377401
1.5008091
1.5907251
1.6778302
1.7576841
1.8306538
1.8945162
1.9492177
1.9976808
2.0432525
2.0888636
2.1360484
2.1845029
2.2320073
2.2754186
2.3121002
2.3384428
2.3492497
2.3433147
0.79989218
0.87033558
0.96400679
1.0618188
1.1491883
1.2145317
1.2521166
1.2609721
1.2411982
1.1940181
1.1289347
1.0634091
1.0195985
1.0158003
1.0533228
1.1179583
1.1941855
1.2714373
1.3474133
1.4220781
1.4946018
1.5478744
1.5719647
1.5825209
1.5853299
1.5808266
1.5646238
1.5283796
1.47565
1.4136894
1.3140583
0.84867626
0.60680267
0.29384562
1.2475488
1.4884834
1.5690237
1.6294929
1.6933451
1.7572193
1.8183871
1.8727736
1.9192252
1.9595041
1.9961748
2.0317889
2.0679634
2.1048611
2.1411642
2.1752138
2.2054678
2.2275089
2.2349139
2.2264901
0.85137064
0.91514921
0.99588342
1.0747509
1.1394109
1.1813868
1.1976196
1.1881482
1.1537973
1.0992984
1.0369788
0.98348884
0.95666678
0.96738449
1.0114482
1.0759704
1.1488988
1.2234901
1.2997635
1.3784735
1.4591618
1.5259837
1.5696188
1.6036095
1.6289031
1.6412196
1.6335973
1.5992423
1.5395686
1.458065
1.3552185
1.2396714
1.0898388
0.66993365
0.39866247
0.10408542
0.593245
1.4776951
1.5727898
1.6273758
1.6662171
1.7107884
1.760059
1.809713
1.8544999
1.8924331
1.9243166
1.9520708
1.9779611
2.0037434
2.0301367
2.0569357
2.0839253
2.1099829
2.1295951
2.1350771
2.1254542
0.9114783
0.96670652
1.0322368
1.090387
1.1314765
1.1503821
1.146369
1.1201511
1.0736789
1.0150543
0.9563845
0.91270281
0.89708581
0.91513993
0.96014317
1.0214726
1.090044
1.1617489
1.2378319
1.3193718
1.4067937
1.4868061
1.5523698
1.6118385
1.6622103
1.6953707
1.7016314
1.6735671
1.6130018
1.5246405
1.4145956
1.2854919
1.1339568
0.96199869
0.75362921
0.3807699
0.22625304
0.33014796
1.0905602
1.511158
1.6386973
1.6787318
1.7027684
1.7317741
1.767737
1.8060245
1.8409618
1.8699652
1.8930815
1.9117865
1.9281806
1.9442328
1.9613681
1.9805875
2.0027196
2.0264103
2.0449301
2.0494793
2.0396121
0.98303636
1.0279878
1.0763171
1.1124516
1.1296714
1.1261215
1.1028657
1.0608058
1.0049317
0.94344534
0.88783281
0.85073468
0.84109644
0.8609732
0.90330151
0.95972877
1.0235554
1.0924089
1.1681378
1.252194
1.3467708
1.4418669
1.5321298
1.6195365
1.6978828
1.7555752
1.7800458
1.7618576
1.7021945
1.6075954
1.4876185
1.3458078
1.183326
1.0021048
0.80219607
0.62972024
0.4212045
0.73483169
1.3312123
1.5846186
1.6896158
1.7242191
1.7398075
1.75717
1.7812794
1.8084758
1.833314
1.8528508
1.8666997
1.8760696
1.8831115
1.8901391
1.8993595
1.9129007
1.9320603
1.9546685
1.9728951
1.9770842
1.9675829
1.0692133
1.1030184
1.1330379
1.1465791
1.1400555
1.1144506
1.0719725
1.0153113
0.95103984
0.88662615
0.83243899
0.79841371
0.79031169
0.80809159
0.84547898
0.89610188
0.95509559
1.0211912
1.0967255
1.1839017
1.2870563
1.3999174
1.5170216
1.6343087
1.7427106
1.827589
1.8736021
1.8684945
1.8122049
1.712038
1.5804803
1.423836
1.2538432
1.0709777
0.87065071
0.73740504
0.82937665
1.0949728
1.4103384
1.6289887
1.7276077
1.763953
1.7769998
1.786848
1.8010995
1.8178649
1.8324617
1.8420211
1.8458867
1.8455462
1.8433121
1.841991
1.844638
1.8541967
1.8718117
1.8940821
1.9124063
1.9165196
1.9076876
1.1728402
1.195959
1.2079137
1.1992602
1.1694777
1.1218477
1.0595015
0.98869223
0.91557968
0.84704867
0.79196013
0.75762659
0.74746333
0.76044959
0.79151487
0.83585542
0.88997944
0.95336973
1.0293115
1.1209323
1.2342905
1.3659555
1.5099751
1.6578254
1.7971584
1.9107102
1.9809783
1.9925775
1.943594
1.8408549
1.6979367
1.5274661
1.3485576
1.1588688
0.95514559
0.83423089
0.92389436
1.1702624
1.4493266
1.6524569
1.754498
1.7977125
1.8132659
1.8198219
1.8268385
1.8344043
1.8390159
1.8381092
1.8313492
1.8207802
1.8092142
1.8001906
1.7974669
1.8043665
1.8213662
1.8436683
1.8622561
1.8664036
1.8584058
1.295342
1.309588
1.3052062
1.2758782
1.2237977
1.1540996
1.0712763
0.98555658
0.90213325
0.82747598
0.76880425
0.73113082
0.71617147
0.72259625
0.74645059
0.78420905
0.833385
0.8943797
0.97128536
1.0684829
1.1931297
1.3423004
1.5102681
1.6868542
1.8567608
1.9999598
2.0968125
2.1290883
2.0922493
1.9921436
1.8405314
1.6563211
1.4653897
1.2658013
1.0557625
0.92868554
0.99478844
1.2111795
1.4638327
1.6602656
1.7714055
1.8250328
1.8470922
1.8544502
1.8574216
1.8576461
1.8529325
1.8413534
1.8235128
1.8021859
1.7811721
1.7649685
1.7578707
1.763053
1.7798995
1.8023687
1.8213163
1.8255974
1.8186066
1.4350145
1.4431109
1.425275
1.3778357
1.3052033
1.2140599
1.110957
1.0090302
0.91343429
0.83040066
0.76557923
0.72210782
0.70052072
0.69935113
0.71541456
0.74622929
0.79030238
0.84916278
0.92760878
1.031299
1.1668061
1.3306294
1.5179938
1.7190538
1.917626
2.0908848
2.2162032
2.2723531
2.2521149
2.1588637
2.0035656
1.8061586
1.6027608
1.3920561
1.1741544
1.0301104
1.0605007
1.238508
1.4656179
1.6573235
1.7794131
1.8453195
1.8768225
1.8886722
1.8909926
1.8862828
1.8734859
1.8516145
1.8224497
1.7899886
1.7595285
1.736466
1.7256344
1.7296206
1.7464803
1.7691335
1.7885327
1.7930716
1.7875222
1.5848302
1.5896663
1.5617906
1.4995852
1.4092766
1.2987791
1.1772019
1.0583344
0.94935066
0.856313
0.78357779
0.7329203
0.70398719
0.69488678
0.70284562
0.7263012
0.76521891
0.82225966
0.90270945
1.0141767
1.1577546
1.333179
1.5368362
1.7604271
1.9870086
2.1907338
2.3453422
2.4259922
2.4211138
2.3338674
2.1782532
1.9728043
1.7547081
1.5333613
1.3081164
1.1441773
1.1333533
1.2663905
1.464317
1.6487954
1.7801647
1.8586252
1.9012563
1.920462
1.9251932
1.9182558
1.8993151
1.8682142
1.8279523
1.7842228
1.7442886
1.714633
1.7004279
1.703394
1.7201819
1.7430116
1.762904
1.7677812
1.7643701
1.73021
1.7342631
1.6998447
1.626906
1.5231237
1.3973494
1.2608733
1.1262587
1.0044163
0.90126516
0.82036603
0.76264163
0.72707818
0.710663
0.71101978
0.7272751
0.76151733
0.81874703
0.90302859
1.0179027
1.167635
1.3534063
1.5741704
1.8235799
2.0827498
2.3205244
2.503715
2.6016744
2.6030911
2.5156685
2.3562542
2.1442134
1.9083181
1.6776259
1.4471342
1.2665862
1.2165068
1.3021359
1.4661193
1.6381582
1.7747332
1.8648413
1.919258
1.9478649
1.9577931
1.9515737
1.9289653
1.8903217
1.8398011
1.7850452
1.7354509
1.6992336