/*--------------------------------*- C++ -*----------------------------------*\
  =========                 |
  \\      /  F ield         | OpenFOAM: The Open Source CFD Toolbox
   \\    /   O peration     | Website:  https://openfoam.org
    \\  /    A nd           | Version:  8
     \\/     M anipulation  |
\*---------------------------------------------------------------------------*/
FoamFile
{
    version     2.0;
    format      ascii;
    class       volScalarField;
    location    "7200/air";
    object      nut;
}
// * * * * * * * * * * * * * * * * * * * * * * * * * * * * * * * * * * * * * //

dimensions      [0 2 -1 0 0 0 0];

internalField   nonuniform List<scalar> 
167754
(
0.33180936
0.32727679
0.30481412
0.26989435
0.22912884
0.18905729
0.15498933
0.1298284
0.11361766
0.10437786
0.099742159
0.09809399
0.099079352
0.10373103
0.11504302
0.13741209
0.17435689
0.22538259
0.28510649
0.34512001
0.39828298
0.4413887
0.47202171
0.49162811
0.50242981
0.50012349
0.47747902
0.43449753
0.37676815
0.32215434
0.27136605
0.22636601
0.18867288
0.15862053
0.13572639
0.11901746
0.10736819
0.099608218
0.094673664
0.091705152
0.090087883
0.089412139
0.089479088
0.090441278
0.093944649
0.10508235
0.13396478
0.1904982
0.27319369
0.37130365
0.4741051
0.57408262
0.66691324
0.7499371
0.8208643
0.87706891
0.9152832
0.93138181
0.92094815
0.89021232
0.88185627
0.83778396
0.76587948
0.67391947
0.57066349
0.4657228
0.36899205
0.28932056
0.23243426
0.19975476
0.19022203
0.20384973
0.24376024
0.31356847
0.41245592
0.53202165
0.65821448
0.77741109
0.8824613
0.97378454
1.053166
1.1173599
1.1699481
1.2204435
1.252585
1.239256
1.1737314
1.062184
0.94374949
0.82940127
0.7226655
0.62529658
0.53708253
0.45763867
0.38751205
0.32755915
0.27826179
0.23920699
0.20920717
0.18682053
0.17084857
0.16102296
0.15967162
0.17809845
0.24382846
0.37505703
0.55684235
0.75623538
0.94842666
1.1240926
1.278877
1.4120729
1.5251266
1.6185535
1.6911863
1.7401016
1.7605162
1.7461663
1.5012845
1.4908412
1.438126
1.351155
1.2369289
1.1028656
0.95725686
0.80988187
0.67256717
0.55897044
0.48304859
0.4560438
0.48284883
0.56032078
0.67791617
0.81945992
0.96759764
1.109922
1.2429117
1.369683
1.4891587
1.6036642
1.710614
1.8070254
1.9253188
2.0405378
2.0682226
1.9757924
1.7923507
1.6061996
1.4395264
1.2897795
1.1566299
1.0362199
0.92589883
0.82421793
0.73058583
0.64521988
0.5690195
0.50328598
0.44928374
0.4083129
0.38337967
0.3841635
0.43548413
0.57204923
0.79577568
1.0625787
1.3247648
1.5573515
1.7547477
1.9197134
2.0577172
2.1735266
2.2693927
2.3446063
2.3957857
2.4172219
2.401569
2.0271331
2.015114
1.9596969
1.8690613
1.7499073
1.6090237
1.4535598
1.2919255
1.1351317
0.99771697
0.89725218
0.85125929
0.86865677
0.94262859
1.0547872
1.1853985
1.3216709
1.4609636
1.5979097
1.7498167
0.85432101
0.92766919
2.4307248
2.5703323
2.7694903
2.9543384
2.9062209
2.704006
2.4367692
2.1653123
1.9252078
1.7191198
1.568859
1.4319846
1.3074281
1.194995
1.0943234
1.004016
0.92268484
0.85023165
0.78889182
0.74285557
0.71977949
0.73617893
0.82114893
1.0003705
1.2601894
1.5498998
1.8225937
2.0560659
2.2479173
2.4046776
2.5348446
2.6449815
2.7379842
2.8128048
2.8650771
2.8879451
2.8731047
2.4388474
2.42482
2.3680016
2.2768562
2.1582099
2.0188407
1.8655652
1.7061709
1.5510814
1.4137084
1.3075098
1.2461401
1.2394485
1.2837953
1.3652721
1.4719236
1.6002606
1.7524711
0.87456745
0.94448779
1.0085551
1.209029
1.4731003
3.631782
1.6912373
3.7710421
3.6177513
3.4263091
3.1151212
2.7963396
2.5150242
2.2304773
1.97174
1.756986
1.5837279
1.4605386
1.3550555
1.2622717
1.1837604
1.1184839
1.0682992
1.0376332
1.0347529
1.0761738
1.1869639
1.3833854
1.6472458
1.9319902
2.1951749
2.4165735
2.5949421
2.7384801
2.8574437
2.9596717
3.0484955
3.1224088
3.1759658
3.2010417
3.1883831
2.7452746
2.7284095
2.6699154
2.5784448
2.4610647
2.3246472
2.1757954
2.0218765
1.8740856
1.7467227
1.6457026
1.574746
1.545017
1.5599904
1.6171267
1.7222983
1.8967886
0.947989
0.98342784
0.9883679
0.43380205
0.21792261
1.9135949
1.9797589
1.8364946
1.8209336
1.8084297
1.7754755
3.988113
3.70974
3.3852522
2.97008
2.5798356
2.2395374
1.9533528
1.7335355
1.5698606
1.4530166
1.3693906
1.3011643
1.2555761
1.239111
1.2574438
1.3230224
1.4544826
1.6606589
1.9219227
2.1968186
2.4475672
2.6555148
2.8197922
2.9495145
3.0563692
3.1495784
3.2332119
3.3055607
3.3602597
3.3878725
3.3782304
2.9625887
2.9421249
2.8814965
2.7893048
2.6728253
2.5388111
2.3931609
2.2428557
2.1043873
1.9935986
1.9022584
1.8321933
1.7907317
1.7939183
1.8594802
2.0238988
0.992959
1.0058375
0.48215004
0.17968566
0.61340969
2.1463203
1.9433099
0.59980436
0.77532034
1.7544229
1.877032
1.8610194
1.8189396
1.7282819
3.757131
3.398217
2.93111
2.5229614
2.1650111
1.8830393
1.6816833
1.5405077
1.4408796
1.386333
1.3687726
1.3957341
1.4762625
1.621925
1.8354103
2.0950836
2.362354
2.6029553
2.7993509
2.9508015
3.0670952
3.1612886
3.2442036
3.3210988
3.3905235
3.4454614
3.4753022
3.4692919
3.1067443
3.0817638
3.018516
2.9253877
2.8094281
2.6769048
2.533086
2.3857175
2.2558047
0.98963433
2.1098698
2.0478776
2.0101595
2.0377553
2.1750029
1.0697782
1.029998
0.30460203
2.1265685
2.3206582
0.78597446
0.51671706
0.87465762
1.7280063
1.8107732
1.7766308
1.7130197
3.5737195
3.2381695
2.8099541
2.3920955
2.0551293
1.7928061
1.6043776
1.4994489
1.4631061
1.4838309
1.5628101
1.7120447
1.9299261
2.1895931
2.4521505
2.6853252
2.8722148
3.0122047
3.1156256
3.1967086
3.2679431
3.3362091
3.400861
3.4546455
3.4863717
3.4864169
3.1963689
3.163727
3.0957418
3.0009161
2.8849559
2.752903
2.6081238
2.4592146
1.0803195
0.98602006
1.0678749
1.0543327
2.2524835
2.3203332
2.5420464
1.2156369
0.5242667
2.4468933
2.3687799
0.32592393
0.54275803
0.88447115
1.6281776
1.6745944
1.6456552
1.5423919
3.0022555
2.6058804
2.1958019
1.8511428
1.6363811
1.546757
1.5460926
1.6151278
1.7535291
1.9665924
2.2240721
2.4840802
2.7128888
2.8924985
3.0223263
3.113683
3.1816103
3.2401334
3.2981264
3.3562514
3.4078891
3.4448179
3.4511618
3.2425234
3.2035722
3.1298685
3.0289477
2.9109925
2.7771659
2.634241
2.4866112
1.0293466
0.46224359
0.3879726
1.0253685
1.1180825
1.1711471
1.279186
1.3798928
0.41629005
0.70808286
2.618992
1.0069871
0.63740921
0.80828919
1.4973715
1.5467762
1.4726563
1.3229694
2.1613566
1.7919279
1.6183235
1.5864831
1.6498296
1.7769316
1.9707899
2.2172771
2.470415
2.695556
2.8698855
2.9918312
3.0732432
3.1291479
3.1749234
3.2219903
3.2732408
3.3258935
3.3654247
3.3760057
3.2531333
3.2077509
3.1298192
3.0250062
2.9013945
2.7680789
2.6382259
1.1737798
0.95322612
0.21122266
0.4417821
1.2461988
1.4542572
1.5299867
2.5647405
2.6561115
0.39665241
0.5631066
0.70160119
1.3008905
1.1690254
1.0068899
1.5724818
1.5828944
0.89214652
1.791996
1.9706278
2.1980396
2.4310142
2.6423703
2.8112866
2.9253551
2.9991859
3.0455515
3.0805855
3.1185247
3.1667057
3.2197649
3.2605466
3.274651
3.2390129
3.1861056
3.1030871
2.9939618
2.8655923
2.7268259
1.2192874
1.053015
0.39486052
0.24040929
0.69860599
0.69544283
2.8378248
1.1613024
0.42883973
0.48210925
0.82258112
0.84686357
0.85672159
0.96608815
1.0103536
1.0879572
2.3688108
2.5803316
2.7405269
2.8385595
2.9012899
2.9389761
2.9643512
2.9978741
3.0454434
3.0993897
3.142276
3.1597132
3.2125819
3.1499114
3.058725
2.9412678
2.8074848
2.6618278
1.1061694
0.9029715
0.43034204
0.82997504
2.8762653
0.70287394
0.4014699
0.71380373
0.28099543
0.38063685
0.4766372
0.92633573
1.1353338
1.2335808
1.2953203
2.7224567
2.7903902
2.8251573
2.8382741
2.8650213
2.9135687
2.9733553
3.0213943
3.0424748
3.18764
3.1123785
3.0088959
2.8778432
2.726978
1.2266052
1.0044547
0.35941169
0.37076884
2.961774
1.2402938
0.64264643
0.38503488
0.12242404
0.46586642
0.97929313
1.0733845
1.2398752
1.2916271
1.3045081
2.6637569
2.7171584
2.7789363
2.850689
2.9080877
2.9332288
3.1796619
3.0887655
2.9670387
2.8163436
2.6312269
1.0751555
0.47385427
2.7764011
3.054866
0.91566759
0.10879637
0.60792643
0.24759089
0.29461068
0.42942137
0.95852461
1.0434323
1.1760308
1.2288032
2.6395345
2.7462039
2.8138906
2.841551
3.2062018
3.0983676
2.9540622
2.7719559
1.2159812
0.95746152
0.30820664
0.75054628
2.812099
1.2471695
0.25776622
0.63335613
0.085161526
0.22299811
0.43336478
0.90823018
1.2078248
2.6801938
2.7488906
2.7753343
3.2846858
3.1613492
2.9985
2.775424
1.0769041
0.44530897
2.430649
2.6267367
0.94541738
0.57388283
0.31763901
0.35814441
1.117365
2.6816108
2.7248105
2.7398175
3.42977
3.3011543
3.1511438
1.3388707
1.0497088
0.27951052
0.76177296
2.3723988
2.2518632
0.10689116
0.62221949
0.26619103
0.43746067
1.2309915
2.7256956
2.7337976
2.7339177
3.6470549
3.5230825
3.3969328
1.4006655
1.2306953
0.28882182
2.1201877
2.1905492
0.77206806
0.26219622
0.67673627
0.0859127
0.46602614
1.2997183
2.7869558
2.7697602
2.7539936
3.9279113
3.8076959
3.6883114
1.5388588
1.4834759
0.37056442
1.8119812
2.0636809
1.8983299
0.25341577
0.56587254
0.33882979
1.1453442
2.8820259
2.8592813
2.8315425
2.8006289
4.2509366
4.1285046
3.9941539
3.9272778
1.6749218
0.62020871
0.46505979
1.9472215
1.9161629
0.67975982
0.10174664
0.60323612
0.26964982
1.2530681
2.9883243
2.9472212
2.9149951
2.8750209
4.581416
4.440549
4.2860548
4.1799405
1.8262068
1.5454972
1.7475156
1.9499408
1.80062
0.37225726
0.21868692
0.69428958
0.30524834
1.3965038
3.1252787
3.0637215
3.0239641
2.9795637
4.8799803
4.6983856
4.5216467
4.382193
1.8891717
1.7745564
0.21157425
0.57846671
1.9102657
1.9171419
1.801651
1.4214419
1.2513273
1.3096265
1.3112717
1.1993561
1.0245305
0.84728833
0.69936512
0.64487116
0.63686157
0.6249211
0.60967113
0.58903
0.57400078
0.69349196
0.70870599
0.63153228
0.59107172
0.60140857
0.65435894
0.76129259
0.86329106
0.95579498
0.36852297
1.5408942
3.2890472
3.2066005
3.1590568
3.1144979
5.0936592
4.8667653
4.6731635
4.5047386
4.4023883
1.912639
0.5609066
1.7967338
1.9508211
1.8728879
0.87175351
1.53158
0.66379645
0.69629914
0.67068696
0.56377931
0.46212222
0.38733488
0.32715982
0.27904104
0.30918906
0.31769028
0.32945678
0.32911972
0.35378415
0.41889431
0.45607189
0.41738902
0.37388124
0.43140361
0.53519327
0.63360743
1.1558193
1.0162542
0.35606965
0.31012171
1.6625344
3.4669576
3.3676805
3.316056
3.2758907
5.1899263
4.9400547
4.7332126
4.5602519
4.4533052
1.9944034
0.76857872
0.65733398
1.9845161
1.9819786
1.847573
0.90430306
0.76832587
1.4712389
1.3318833
0.6001927
0.15183029
0.34431379
0.15771218
0.2789924
0.34167837
0.25294192
0.77424758
1.0280206
1.045578
0.94341462
0.35287649
0.46233155
1.7530537
3.6374768
3.5352815
3.4860838
3.4550954
5.1933691
4.9365012
4.7229436
4.5513029
4.4536143
2.0233421
1.7665183
0.31453448
1.9172032
2.1450214
2.0769992
1.8333654
0.55172517
0.44137442
0.50416594
0.26765944
0.20337381
0.14211654
0.11906403
0.18449299
0.24242062
0.25103797
0.26225719
0.2724333
0.26013192
0.25151832
0.23731926
0.49016052
0.67010342
0.30868575
0.33541137
0.57306424
0.62512102
0.69085099
1.7165291
0.84311127
0.35097171
0.60377335
1.779216
3.7714402
3.6938727
3.6550306
3.6374543
5.0867379
4.8418666
4.6395603
4.4836135
4.3977556
1.9748996
1.876957
0.36967116
1.7021768
2.1221319
1.1223898
1.1276115
1.0076673
0.88207161
1.4432832
0.48546917
0.42857138
0.67130677
0.74166126
0.7532769
0.7381193
0.70694049
0.66813146
0.62776024
0.59887829
0.44153649
0.68306325
0.33442531
0.29330164
0.68511141
1.5887586
1.4376478
0.78419471
0.77472785
0.28987937
0.65896287
1.7799576
3.8772433
3.8300943
3.8061918
3.8041481
4.8688206
4.6565516
4.4845498
4.3605219
4.2959641
4.3092701
1.9701073
0.76192826
0.49488428
1.9813483
2.3666952
1.1849359
1.1464412
0.87803075
0.7640827
0.68930516
0.52864365
0.62339998
0.69057061
1.4879787
1.3601885
1.2364098
1.1222145
1.0172307
0.91953919
0.82888752
0.74895953
0.6887556
0.65928592
0.6095153
0.23727257
0.91432654
0.99583504
0.8998087
0.72927455
0.7783951
0.18348339
1.7175254
3.992057
3.9427041
3.9331831
3.9262881
3.938134
4.5553721
4.3890111
4.2607417
4.1787079
4.1509046
4.1797893
4.2618159
1.9510924
1.5971648
0.49105775
1.6833975
2.0876098
1.107344
1.1205547
1.0075831
1.6735392
1.6792734
3.4804569
3.1854123
2.9134257
2.6592777
2.4201515
2.1931622
1.9739723
1.759951
1.5600508
0.71549241
0.59187127
0.25713079
1.1849379
1.3871269
1.1033489
0.97144694
0.90469906
0.27144811
1.7505804
4.0007711
3.9806532
3.9947353
4.0073095
4.0313153
4.1753698
4.0586304
3.9803995
3.9447221
3.9514793
3.9959378
4.0533525
4.0512995
1.8332687
1.6165165
4.3538131
4.7730413
2.3097816
2.2626832
1.0853804
0.59889973
1.8046943
3.8508186
3.5249109
3.2362979
2.9710693
2.723854
2.4906152
2.2654213
2.0449468
1.8288949
1.6226502
0.73753184
0.59299977
0.28982487
1.4138694
0.78569289
1.3695005
1.1104213
1.1068658
1.075389
0.47341965
0.20300642
1.748796
3.9815632
3.9900981
4.0250231
4.0558051
4.0900787
3.7648839
3.6944228
3.6670573
3.6794884
3.7242658
3.7916118
3.8642262
3.9023157
3.9120122
4.0685484
2.1109073
2.2302957
2.1891531
2.2325695
1.0990875
1.769117
4.058474
3.7697818
3.4882989
3.2260808
2.9794748
2.741226
2.5153889
2.2980366
2.0859537
1.8805753
1.6869065
0.7716573
0.60937779
0.30577518
0.70564549
0.80993221
0.67126967
0.57785279
0.55788505
0.60151448
1.1701992
1.1818638
1.1131075
0.44642807
0.17920909
0.31395289
1.7145234
3.9298989
3.9637947
4.0186089
4.0655389
4.1072973
3.3566295
3.3261413
3.3465884
3.4058766
3.4912983
3.5894034
3.6861769
3.7641098
3.8361248
1.9471138
1.9468528
1.0786656
2.1060967
2.1644004
1.0564749
1.7538646
3.8929337
3.6453823
3.4001416
3.1667661
2.9393879
2.7150351
2.4985647
2.2914689
2.0910082
1.8995061
1.7263744
0.81203696
0.64862345
0.28728323
0.73137318
1.5934108
0.99617654
0.29555531
0.17828946
0.52532508
0.58797732
1.2862122
1.2483022
1.1489126
0.38964035
0.15944719
0.3613429
1.6532744
3.8344398
3.9009686
3.9766791
4.0390174
4.0863184
2.9713144
2.9771248
3.039936
3.1416273
3.2658385
3.3969814
3.52138
3.6298456
3.727689
1.7686908
1.8694716
1.0127275
0.99597647
2.1806662
1.0158223
1.6742158
3.7033143
3.4897631
3.27597
3.0662178
2.8549646
2.6406494
2.4321473
2.2315508
2.0402272
1.8597292
1.700153
0.82861827
0.6948232
0.2751836
0.24899877
0.5941147
0.57671579
0.7375966
0.1771971
0.15525001
0.49520485
0.52954994
1.2837688
1.2820017
1.2542077
0.38873642
0.13772305
0.45922824
1.5651364
3.6958516
3.8093755
3.9067705
3.9838836
4.0352756
2.6340468
2.6657714
2.7615865
2.8975347
3.056782
3.2185412
3.3701205
3.5053887
3.6292032
1.7331605
1.832896
0.92635331
1.7719959
1.0053514
0.92008511
1.5367057
3.451584
3.2774456
3.088656
2.8935952
2.6912342
2.4840877
2.2731323
2.072451
1.884169
1.7052696
1.5409267
0.77610291
0.61273462
0.30109738
0.28591919
0.47546489
0.85759722
0.34092084
0.14740669
0.39925402
0.45084679
1.2748556
1.0787859
1.1410884
3.2695866
3.5314904
3.701185
3.820329
3.9103028
3.9645958
2.3656952
2.413849
2.524973
2.6849459
2.86736
3.0525099
3.2307923
3.3876407
3.5289549
3.7340902
1.791094
0.84702536
0.80671432
1.8001372
0.85015842
1.3257138
1.4797501
1.4636807
1.4078944
1.3329518
1.2406755
1.1264997
0.98512576
0.83167907
0.69574076
0.58823804
0.51168884
0.47956058
0.50041987
0.3409986
0.38256586
0.44859284
0.62845515
0.13019904
0.40862825
1.0230646
3.1172678
3.401106
3.5931287
3.729716
3.8285551
3.8840899
2.1496291
2.2131141
2.334985
2.5059592
2.7044371
2.904383
3.0944847
3.2686827
3.4256144
3.6019879
1.729414
1.6913954
0.82410308
1.7589407
1.8052559
1.6784456
1.6181553
1.5657438
1.5206513
1.4824854
0.8222418
0.88077208
0.83074211
0.73956829
0.59048375
0.41212819
0.27071084
0.24905043
0.24163809
0.19478208
0.17327941
0.24290092
0.40225305
0.35138975
0.51588037
0.83296204
0.30572692
0.42805593
1.0997039
3.0742118
3.3205876
3.5048849
3.6450984
3.7462694
3.8007019
1.9717608
2.0527487
2.1825776
2.3581456
2.5649652
2.7713132
2.9662275
3.1424766
3.3058871
3.4559171
1.6544833
1.6538724
0.81598873
0.83192653
0.93427286
1.7139586
1.6711153
1.6240443
1.5609128
1.487289
0.75499267
0.96658383
0.74980346
0.58294702
0.4398539
0.24946318
0.19510961
0.26936587
0.24759308
0.18355065
0.17238439
0.17703157
0.31983931
0.37036386
0.51539219
0.38589751
0.99766942
2.776281
3.0627804
3.2671612
3.4315139
3.5659438
3.6651696
3.7169786
1.8255945
1.9197415
2.0593284
2.2367014
2.4447836
2.650425
2.8427796
3.01518
3.1689666
3.2982606
1.5819626
1.5921202
0.74794342
0.7828014
0.81971239
1.6151688
1.5316049
1.5216547
1.4566542
1.3915595
0.73375805
0.4573232
0.34024781
0.22268002
0.19036148
0.25945672
0.33518218
0.2581589
0.13123126
0.083614706
0.096088486
0.18903126
0.62663957
0.78234093
0.74353656
0.23113236
0.36953159
1.1096989
2.817037
3.0414611
3.21081
3.3599085
3.4872676
3.5834629
3.6323011
1.7045908
1.8095068
1.9580626
2.1357315
2.3394398
2.5387841
2.7231743
2.8865656
3.0258508
3.13205
3.2033008
1.5205455
1.4167373
1.5438471
0.74650884
0.69445209
1.3962151
1.3920697
0.73543638
0.7437389
0.67980029
0.43582275
0.27104412
0.20822567
0.45776811
0.38572597
0.4670364
0.28748618
0.17571898
0.1515729
0.1620687
0.56225485
0.39121006
0.90060134
0.29055128
0.17876086
0.97239833
2.5487294
2.8109711
2.9940932
3.1451932
3.2846027
3.4060176
3.4989521
3.5448062
1.6028916
1.7174608
1.8728393
2.0490386
2.2449602
2.4342933
2.6073059
2.7580232
2.8800521
2.9609874
2.9845124
1.3967191
1.2246014
1.5047725
1.3064885
1.1652392
1.1067039
1.0681826
1.1276576
1.1126709
1.0321683
0.92311704
0.78378969
0.65634557
0.58547983
0.4925352
0.45624861
0.51323711
0.53691824
0.51392621
0.36903284
0.58042598
0.68160035
0.65667477
0.16271039
0.82133565
2.273902
2.5683495
2.7738719
2.9320884
3.0732465
3.2054046
3.3211721
3.4098153
3.4523046
1.5158619
1.6389535
1.7990266
1.9722849
2.1583703
2.3358129
2.4962282
2.6341109
2.7421008
2.806249
2.7815015
1.240038
0.5195458
0.39849452
0.29588133
0.23554599
0.20989485
0.204892
0.20957093
0.21139358
0.21502286
0.21892248
0.21158049
0.18030396
0.13447797
0.075331729
0.086739523
0.12924765
0.091574511
0.07920342
0.11294603
0.60273193
0.65568646
0.62379929
0.26811165
0.27106393
0.95028837
2.3278097
2.5504385
2.719391
2.8638743
2.997601
3.1227384
3.2319273
3.3146336
3.3532196
1.4401453
1.5702997
1.7331767
1.9024347
2.0776675
2.2428623
2.3910371
2.5185579
2.619925
2.6845381
2.6794489
1.2261904
0.57229139
0.19006134
0.51783544
0.48803799
0.51906801
0.56260776
0.55562813
0.17770604
0.81482748
2.0908368
2.3346969
2.5115334
2.6591522
2.7930581
2.9192516
3.0367434
3.1380938
3.213436
3.2475404
1.3735564
1.5088966
1.6727989
1.8373273
2.0014796
2.1546922
2.2912686
2.4093088
2.5056071
2.5729667
2.5843201
1.2305623
0.90951338
0.088755083
0.43440465
0.38972752
0.18224283
0.27185596
0.53516415
0.57101642
0.27700314
0.31838912
0.92556048
2.1329232
2.3181563
2.4643679
2.5969925
2.7209698
2.8390774
2.948164
3.0408153
3.108069
3.1373874
1.3147622
1.4530725
1.616288
1.7755774
1.9289694
2.0708829
2.1962978
2.3046262
2.3941875
2.461366
2.4737137
1.1975274
0.97334584
0.21687609
0.41631676
0.44988182
0.1903881
0.15447302
0.28646147
0.53126869
0.55970251
0.23521832
0.81782377
1.9460081
2.1418841
2.2877217
2.4144813
2.5340249
2.6485198
2.758216
2.8585447
2.9424233
3.001821
3.0267002
1.2629831
1.4018564
1.5627514
1.7165346
1.8600367
1.9916232
2.1066839
2.2057583
2.2881547
2.3524729
2.3716917
2.1965833
0.99838892
0.35977054
0.22748035
0.44658316
0.4179875
0.12611096
0.24147633
0.48235557
0.54603709
0.48645067
0.19272331
0.35887674
0.91293538
1.9896098
2.1339694
2.2517251
2.363254
2.4711637
2.5766982
2.6780186
2.7698928
2.845654
2.8980372
2.9191832
1.2178661
1.354842
1.5118979
1.6600599
1.7950361
1.9174156
2.0235256
2.1145614
2.1904447
2.2504872
2.2747569
2.1582376
1.0093198
0.44205008
0.089397322
0.58341715
0.49088988
0.21596364
0.24917977
0.50874398
0.51448846
0.29318092
0.10351664
0.17061435
0.83473597
1.860667
2.0060216
2.1145645
2.2134775
2.3114929
2.4091668
2.5064072
2.5998495
2.684066
2.752699
2.7991101
2.8171608
1.1793892
1.3120685
1.4638898
1.606484
1.7344556
1.8488293
1.9477318
2.0326313
2.1040509
2.1615512
2.1925997
2.118195
1.0144072
0.78280206
0.52585782
0.66852187
0.52220035
0.098882068
0.11281503
0.26732419
0.50050994
0.5119701
0.28453955
0.75324515
1.7687678
1.9102879
2.0060403
2.08926
2.1732073
2.2597069
2.3486421
2.4383778
2.5247479
2.6022802
2.6648449
2.7063738
2.721809
1.1477707
1.2739402
1.41916
1.5562499
1.6785645
1.7863893
1.8800797
1.9610345
2.030437
2.0882533
2.1287995
2.0905703
1.0172708
0.8564703
0.25361577
0.19515435
0.51758164
0.60962994
0.23868098
0.2056464
0.60794325
0.86708341
1.7282615
1.839315
1.9238043
1.9912055
2.0586833
2.1310278
2.2083526
2.2899161
2.3730205
2.4532025
2.525016
2.5825594
2.6203307
2.6339048
1.1236608
1.2412935
1.3785721
1.5098495
1.6275449
1.730679
1.8210391
1.9000138
1.9694967
2.0304842
2.0830268
2.0842361
2.0288567
0.94466004
0.74184427
0.13213826
0.40038926
0.50661982
0.50887535
0.84671333
1.7409557
1.8420085
1.9083023
1.96481
2.0234006
2.087509
2.1577663
2.2330801
2.310376
2.3851885
2.4521608
2.5056467
2.5406848
2.5532734
1.1077559
1.2150426
1.3431609
1.4682906
1.5820895
1.6821669
1.7706494
1.8489938
1.9196042
1.9843625
2.0464442
2.074827
2.0542703
2.0366007
0.93693549
0.84930239
0.25458795
0.35145778
0.43135179
0.46511486
0.18791321
0.3278034
0.84189469
1.7271122
1.8202182
1.8810138
1.9329187
1.9856298
2.0436823
2.1081976
2.1780555
2.2502062
2.3203282
2.3831758
2.433382
2.4664585
2.4787356
1.1011131
1.196597
1.3142098
1.4326931
1.5430672
1.6413204
1.7286847
1.8068999
1.8787055
1.946679
2.0146725
2.058689
2.0610435
2.0717558
2.149671
2.2411046
1.0131959
0.67237478
0.07827718
0.17795335
0.41392217
0.43075513
0.2303791
0.7369057
1.5890823
1.7171789
1.797017
1.8524509
1.8995771
1.9473477
2.000292
2.0597433
2.1246285
2.1921074
2.2580266
2.3172325
2.364658
2.3962411
2.4088055
1.1045222
1.1874359
1.2933923
1.404442
1.5113495
1.6082456
1.6944964
1.7722831
1.8446566
1.914717
1.9851116
2.0359139
2.0566173
2.0872508
2.1665309
2.2660701
2.3261977
0.92398543
0.7714774
0.2301194
0.60015981
0.49044601
0.40096943
0.15525185
0.34180113
0.80359117
1.6108916
1.707582
1.7738829
1.8234856
1.8658592
1.909175
1.9575486
2.0122696
2.0724714
2.1355682
2.1975721
2.2533929
2.2983576
2.3289053
2.3423608
1.1181472
1.188657
1.2821606
1.384899
1.4876171
1.5827185
1.6671276
1.7435853
1.8155044
1.8857049
1.9562687
2.01047
2.0445224
2.0934477
2.1871957
2.3164146
2.4278845
2.4814131
2.4296586
0.94891253
0.80026517
0.14722545
0.80115773
1.7336013
0.60193476
0.22108482
0.16217646
0.7318856
1.4885861
1.6139807
1.6917277
1.7491957
1.7933961
1.8317359
1.8711753
1.9153198
1.9655351
2.0212175
2.0800683
2.1383162
2.1909586
2.2339778
2.2640046
2.2789182
1.1412764
1.2004172
1.281442
1.3749855
1.4721345
1.563707
1.6451543
1.7190714
1.7894773
1.8586272
1.9266058
1.9820265
2.0286786
2.0964703
2.2106619
2.3629767
2.505074
2.5890091
2.6023426
2.6008302
1.07633
1.0095786
0.41919357
0.95287016
2.0923578
0.82750223
0.68335678
0.11425983
0.63509522
1.3750232
1.51491
1.6070706
1.6720851
1.7227807
1.7624279
1.797384
1.8333381
1.8734946
1.9193439
1.9705687
2.0251966
2.0797937
2.1298054
2.1715849
2.2017628
2.2178231
1.1720884
1.2218324
1.2912837
1.3748785
1.464639
1.5504054
1.6273312
1.6975132
1.7648621
1.8312416
1.8954977
1.9528519
2.0125108
2.0984788
2.2311793
2.399146
2.5534971
2.648078
2.6781701
2.666411
2.6193541
2.5597298
1.0892168
2.4158146
2.3700357
2.497102
1.0973416
1.1134217
0.33792068
0.2590596
0.72803423
1.4243133
1.5213968
1.593343
1.6501472
1.695299
1.7311706
1.7631335
1.7957999
1.8320955
1.8736478
1.9204417
1.9709226
2.0221613
2.0702981
2.1116565
2.1422907
2.1600883
1.2084699
1.2514674
1.3106616
1.3839193
1.4642828
1.5419806
1.6123657
1.6774381
1.7405773
1.8033044
1.8639539
1.9249445
1.9964449
2.098404
2.2443186
2.4184008
2.5702099
2.6678878
2.7124991
2.7158677
2.684321
2.6330314
2.6141989
2.5913994
2.6437615
2.7821269
3.0127326
3.1167142
1.2519242
1.1283054
0.29395658
0.66313399
1.3615709
1.445392
1.5176452
1.5773969
1.6274735
1.667742
1.7002406
1.72936
1.7587829
1.7912603
1.8285648
1.8710264
1.9176223
1.9660831
2.0131096
2.05479
2.086956
2.1073522
1.2489658
1.2874457
1.3380463
1.4007167
1.4699876
1.5375596
1.5997131
1.6584684
1.7164977
1.774736
1.8333934
1.8985462
1.9795946
2.092939
2.2466596
2.4159927
2.5593946
2.6577689
2.7172186
2.7481724
2.7601611
2.758859
2.7606898
2.7996921
2.8896037
3.0287613
3.1799477
3.2563742
3.286173
1.3618982
1.1845722
0.87819935
0.13087536
0.30298382
0.74535611
1.4120345
1.4594119
1.5121476
1.5620721
1.6054574
1.6410901
1.6703044
1.696474
1.7225765
1.7512345
1.7843758
1.8227407
1.865887
1.9123082
1.9591517
2.002439
2.0373497
2.0612167
1.293628
1.328873
1.3721156
1.4239607
1.4808596
1.5367174
1.5893607
1.6408194
1.6929999
1.7459187
1.8035202
1.871815
1.9596426
2.0795152
2.2335482
2.3925374
2.5258161
2.6237828
2.6958319
2.7519327
2.8066
2.8481315
2.8864931
2.9535265
3.0569071
3.1855117
3.3014349
3.3516111
3.3138344
3.1974759
2.9902732
1.1582986
0.9025896
0.29053295
0.67453226
1.4167983
1.4472679
1.470989
1.5085981
1.5487764
1.5853433
1.6162399
1.6419537
1.6649077
1.6875328
1.7123489
1.7414758
1.7761209
1.8164586
1.861772
1.9097615
1.9560251
1.9947676
2.02286
1.3445718
1.376799
1.4128318
1.4533822
1.496918
1.5399474
1.5821074
1.6251464
1.6699311
1.7177787
1.7736447
1.8430181
1.9340542
2.0558571
2.203888
2.3509393
2.4750641
2.5723981
2.6544146
2.7298907
2.8147963
2.8900636
2.961397
3.0541865
3.1705575
3.295809
3.396891
3.4288081
3.3617296
3.2086626
3.0046408
2.7827805
2.5185293
0.96498889
0.69787137
0.18987644
0.29322172
0.744017
1.4798237
1.4787961
1.4839039
1.5080678
1.5383476
1.567985
1.5938971
1.6157367
1.6350981
1.6540222
1.6749843
1.7003299
1.7317693
1.7701669
1.8155905
1.8661322
1.916563
1.9599383
1.9928145
1.4055532
1.4338727
1.4619695
1.4904264
1.5197056
1.5490425
1.579602
1.612756
1.6486749
1.6908643
1.7432741
1.8113781
1.9017556
2.0212643
2.1605399
2.2964227
2.4130595
2.5104918
2.6000916
2.6903738
2.7960893
2.8994744
3.0038654
3.1247963
3.259607
3.3914147
3.488779
3.5061295
3.4181169
3.2472087
3.0297203
2.786677
2.5221832
2.2406951
1.9078398
0.75687615
0.50305891
0.24415923
0.6590241
1.4670701
1.5210637
1.5063967
1.4995428
1.5112649
1.5316952
1.5542615
1.574766
1.5922054
1.6075151
1.6224745
1.6395636
1.6614204
1.6903152
1.7278574
1.7747355
1.8290707
1.8845083
1.9329457
1.9709528
1.4812406
1.5042803
1.523208
1.5385586
1.5526679
1.5673299
1.584844
1.605717
1.6320868
1.6668008
1.7136574
1.7778736
1.8646045
1.9786398
2.1084092
2.2350699
2.3465317
2.444658
2.5404289
2.6425114
2.7644925
2.8947571
3.0331402
3.1853819
3.3443469
3.4904125
3.5903719
3.5964034
3.4928066
3.3055281
3.0687587
2.8003618
2.5075335
2.1903507
1.8137577
1.3986066
0.59268408
0.60668135
1.4066714
1.5322622
1.5548957
1.532348
1.5175763
1.518522
1.5297005
1.5449294
1.5595125
1.5719128
1.5826345
1.5932894
1.6064962
1.6252384
1.6523971
1.6903025
1.7399248
1.7989267
1.859801
1.9133652
1.9566908
1.5763058
1.5929178
1.6015821
1.6029606
1.6010908
1.5997961
1.6019156
1.6087038
1.6237694
1.648919
1.6879483
1.7457663
1.8265094
1.9330915
2.0543365
2.1741324
2.2825421
2.3820371
2.483386
2.596345
2.7333354
2.8911081
3.0642666
3.249773
3.4361019
3.6003538
3.7061948
3.7063896
3.5947322
3.3941289
3.1366004
2.840148
2.5252766
2.1825362
1.780818
1.4220016
1.287904
1.3383091
1.4786774
1.5691206
1.5792961
1.5565731
1.5372643
1.5298605
1.5327404
1.5405541
1.5487309
1.5554257
1.5609263
1.5668873
1.5762193
1.5922671
1.6185603
1.6580162
1.7114849
1.7756268
1.8420101
1.9005582
1.9492287
1.6942261
1.7040625
1.7021974
1.6893749
1.6710478
1.6523663
1.6363788
1.6274669
1.6288025
1.6420572
1.6711951
1.7205802
1.7935168
1.8919418
2.0059934
2.1215568
2.229093
2.3306184
2.437818
2.5613449
2.7151164
2.8997494
3.106425
3.3250423
3.5388773
3.7213938
3.8348797
3.8375072
3.7265385
3.5186221
3.2411733
2.9230262
2.5839523
2.2162699
1.7991441
1.4697283
1.3620216
1.4094982
1.5163006
1.5880053
1.5971207
1.5782879
1.5576631
1.5447809
1.5406597
1.5413915
1.5428164
1.5432688
1.5429224
1.5438117
1.549143
1.5629252
1.5892461
1.6313082
1.6893634
1.7587974
1.8305385
1.8938184
1.9479337
1.8360043
1.8396681
1.8280924
1.8018546
1.76728
1.7302073
1.6941868
1.6676482
1.6528416
1.6520922
1.6696238
1.7093487
1.7737832
1.8642459
1.9724738
2.0863412
2.1956176
2.3010631
2.4145314
2.5492948
2.7211652
2.9296914
3.1650678
3.4126389
3.6501647
3.8483451
3.9721512
3.985891
3.8835873
3.6743095
3.3817005
3.0417478
2.6799675
2.2904088
1.861317
1.5329275
1.4153371
1.4485286
1.5343386
1.597621
1.6105881
1.5972182
1.5778556
1.5622128
1.5527663
1.5470531
1.5418216
1.5357203
1.5290552
1.5244406
1.5256906
1.5376551
1.5647433
1.6101422
1.6731894
1.7478771
1.824822
1.8926787
1.9524929
1.9984267
1.9971976
1.9775344
1.939602
1.8899304
1.834621
1.7782552
1.7326445
1.69987
1.6838791
1.6891397
1.719082
1.775255
1.858837
1.9629863
2.0776703
2.1920997
2.3047782
2.426621
2.5730583
2.7630238
2.9895435
3.2440087
3.5095602
3.7619694
3.9715173
4.1079899
4.1385213
4.051911
3.849051
3.5486459
3.1873547
2.8079451
2.4013849
1.9628737
1.6188173
1.4715387
1.4781022
1.5445207
1.6018064
1.6200929
1.6128659
1.5966487
1.5805665
1.5676497
1.5567535
1.5453898
1.5326607
1.519372
1.5089826
1.5061664
1.5165746
1.5450914
1.5944319
1.6625758
1.7423936
1.8243597
1.8967395
1.9628288
2.1724456
2.1676795
2.1418063
2.0942912
2.0315879
1.9597346
1.8848385
1.8196474
1.7688893
1.7380447
1.7318942
1.7535536
1.8035238
1.8822815
1.9834439
2.1006632
2.2259204
2.3539254
2.4892017
2.6509112
2.8480367
3.0784552
3.3330069
3.5954865
3.843758
4.0542558
4.2051566
4.2611555
4.1994116
4.0142044
3.7202458
3.3489298
2.9562099
2.5394761
2.0958856
1.730227
1.5427668
1.511681
1.5543307
1.6034781
1.6257583
1.6245039
1.6126069
1.5978818
1.5834533
1.5688963
1.5524069
1.5334924
1.5137757
1.4974542
1.4907014
1.4998271
1.5301819
1.5835826
1.6566797
1.741522
1.828376
1.9052788
1.9784277
2.3420524
2.3348136
2.3043152
2.2494313
2.1764742
2.0910625
2.0012676
1.9175114
1.8509824
1.8074483
1.7922139
1.8080261
1.8562959
1.9325457
2.0311683
2.1488849
2.288301
2.4475385
2.6142678
2.7337133
2.8965642
3.0960145
3.3242927
3.5701176
3.8131164
4.0268908
4.1886584
4.2691844
4.2507187
4.1147124
3.8579915
3.5035446
3.1040304
2.6872909
2.2454725
1.8607034
1.6307683
1.5548026
1.5676954
1.6044266
1.627725
1.6316198
1.6246878
1.6127531
1.5984356
1.5818812
1.5617086
1.5376029
1.5119514
1.4900048
1.4793879
1.4874046
1.5195993
1.5770124
1.6547146
1.7441636
1.8355927
1.9169001
1.9977642
2.4856005
2.4767351
2.4432047
2.3832537
2.3027743
2.2070892