/*--------------------------------*- C++ -*----------------------------------*\
  =========                 |
  \\      /  F ield         | OpenFOAM: The Open Source CFD Toolbox
   \\    /   O peration     | Website:  https://openfoam.org
    \\  /    A nd           | Version:  8
     \\/     M anipulation  |
\*---------------------------------------------------------------------------*/
FoamFile
{
    version     2.0;
    format      ascii;
    class       volScalarField;
    location    "7200/air";
    object      p;
}
// * * * * * * * * * * * * * * * * * * * * * * * * * * * * * * * * * * * * * //

dimensions      [1 -1 -2 0 0 0 0];

internalField   nonuniform List<scalar> 
167754
(
99954.75
99954.767
99954.801
99954.852
99954.918
99954.997
99955.085
99955.182
99955.284
99955.391
99955.501
99955.615
99955.736
99955.866
99956.011
99956.175
99956.366
99956.591
99956.859
99957.176
99957.538
99957.929
99958.33
99958.726
99959.097
99959.408
99959.636
99959.77
99959.803
99959.74
99959.589
99959.364
99959.079
99958.748
99958.383
99957.998
99957.6
99957.198
99956.801
99956.417
99956.052
99955.715
99955.41
99955.138
99954.9
99954.692
99954.51
99954.352
99954.216
99954.101
99954.004
99953.92
99953.848
99953.785
99953.731
99953.686
99953.652
99953.629
99953.616
99954.788
99954.805
99954.837
99954.885
99954.946
99955.019
99955.101
99955.192
99955.289
99955.39
99955.494
99955.6
99955.71
99955.828
99955.959
99956.11
99956.289
99956.505
99956.765
99957.077
99957.441
99957.835
99958.231
99958.628
99959.011
99959.338
99959.58
99959.726
99959.769
99959.712
99959.569
99959.35
99959.068
99958.735
99958.365
99957.97
99957.563
99957.155
99956.755
99956.371
99956.009
99955.675
99955.375
99955.11
99954.881
99954.684
99954.514
99954.371
99954.251
99954.153
99954.072
99954.003
99953.943
99953.891
99953.846
99953.808
99953.777
99953.756
99953.743
99954.854
99954.87
99954.901
99954.945
99955.001
99955.067
99955.142
99955.223
99955.309
99955.397
99955.486
99955.573
99955.66
99955.752
99955.854
99955.97
99956.107
99956.276
99956.495
99956.792
99957.181
99957.591
99957.985
99958.38
99958.793
99959.148
99959.4
99959.551
99959.586
99959.52
99959.372
99959.156
99958.89
99958.583
99958.24
99957.865
99957.467
99957.058
99956.651
99956.258
99955.894
99955.567
99955.282
99955.041
99954.839
99954.67
99954.528
99954.412
99954.319
99954.245
99954.185
99954.133
99954.087
99954.043
99954.003
99953.968
99953.938
99953.916
99953.903
99954.938
99954.955
99954.985
99955.029
99955.083
99955.145
99955.213
99955.284
99955.358
99955.432
99955.501
99955.561
99955.613
99955.658
99955.699
99955.737
99955.784
99955.872
99956.017
99956.272
99985.023
99985.45
99957.646
99957.974
99958.429
99958.824
99959.089
99959.246
99959.262
99959.167
99958.994
99958.747
99958.455
99958.14
99957.815
99957.49
99957.16
99956.811
99956.444
99956.073
99955.72
99955.408
99955.148
99954.941
99954.779
99954.65
99954.547
99954.467
99954.407
99954.361
99954.323
99954.287
99954.25
99954.212
99954.174
99954.137
99954.106
99954.082
99954.067
99955.007
99955.025
99955.059
99955.105
99955.162
99955.225
99955.291
99955.358
99955.426
99955.491
99955.541
99955.57
99955.57
99955.538
99955.476
99955.391
99955.305
99955.264
99983.938
99984.097
99984.439
99984.844
99984.936
99957.141
99985.6
99958.103
99958.427
99958.652
99958.724
99958.659
99958.519
99958.257
99957.917
99957.539
99957.175
99956.846
99956.542
99956.245
99955.958
99955.665
99955.38
99955.131
99954.932
99954.781
99954.673
99954.596
99954.543
99954.507
99954.485
99954.468
99954.45
99954.427
99954.397
99954.36
99954.321
99954.281
99954.246
99954.218
99954.201
99955.034
99955.056
99955.095
99955.149
99955.212
99955.281
99955.351
99955.419
99955.489
99955.561
99955.6
99955.591
99955.519
99955.377
99955.169
99954.932
99954.693
99983.296
99983.365
99983.484
99998.192
99997.782
99983.734
99983.809
99984.037
99984.386
99984.869
99985.195
99957.607
99957.699
99957.697
99957.517
99957.214
99956.851
99956.501
99956.151
99955.797
99955.476
99955.193
99954.917
99954.701
99954.569
99954.5
99954.465
99954.451
99954.454
99954.469
99954.49
99954.512
99954.528
99954.532
99954.521
99954.497
99954.462
99954.42
99954.376
99954.336
99954.304
99954.284
99955.013
99955.038
99955.084
99955.147
99955.22
99955.298
99955.375
99955.447
99955.528
99955.635
99955.691
99955.646
99955.486
99955.204
99954.802
99954.419
99982.835
99983.028
99997.552
99998.063
99995.967
99981.957
99981.997
99995.525
99995.707
99981.89
99982.827
99983.31
99983.753
99983.955
99956.19
99956.112
99955.928
99955.702
99955.42
99955.08
99954.739
99954.374
99953.982
99953.714
99953.655
99953.757
99953.906
99954.044
99954.168
99954.278
99954.374
99954.452
99954.509
99954.54
99954.546
99954.531
99954.499
99954.457
99954.41
99954.367
99954.333
99954.313
99954.943
99954.972
99955.024
99955.097
99955.181
99955.27
99955.356
99955.429
99955.517
99983.856
99955.874
99955.807
99955.539
99955.09
99954.427
99982.575
99982.394
99997.272
99980.019
99980.208
99994.35
99993.331
99993.314
99980.038
99981.374
99981.897
99982.157
99954.456
99954.563
99954.508
99954.281
99954.001
99953.604
99953.007
99952.549
99952.494
99952.757
99953.118
99953.447
99953.726
99953.957
99954.144
99954.291
99954.398
99954.464
99954.493
99954.492
99954.467
99954.427
99954.382
99954.338
99954.306
99954.286
99954.832
99954.864
99954.923
99955.004
99955.099
99955.203
99955.305
99955.367
99983.667
99983.822
99984.369
99984.357
99955.799
99955.165
99954.301
99982.079
99996.234
99978.741
99978.461
99992.746
99991.44
99992.032
99979.107
99979.992
99980.535
99980.848
99953.124
99953.093
99952.764
99951.89
99951.201
99951.17
99951.627
99952.263
99952.771
99953.202
99953.552
99953.828
99954.047
99954.208
99954.313
99954.368
99954.383
99954.368
99954.334
99954.293
99954.254
99954.225
99954.205
99954.685
99954.722
99954.788
99954.879
99954.988
99955.108
99955.244
99955.394
99983.502
99997.894
99999.181
99984.863
99984.42
99983.679
99982.792
99981.905
99996.215
99992.435
99977.744
99991.341
99991.018
99991.8
99978.569
99979.11
99979.348
99979.172
99950.222
99949.577
99949.643
99950.496
99951.47
99952.198
99952.782
99953.207
99953.518
99953.783
99953.986
99954.119
99954.196
99954.225
99954.216
99954.186
99954.15
99954.117
99954.091
99954.074
99954.511
99954.553
99954.627
99954.732
99954.857
99954.996
99955.179
99983.437
99983.568
99997.745
99998.93
99983.843
99982.76
99981.852
99977.603
99976.767
99990.369
99990.841
99990.96
99976.554
99975.799
99975.634
99947.835
99949.206
99979.358
99951.911
99952.582
99953.023
99953.333
99953.609
99953.825
99953.95
99954.028
99954.052
99954.033
99953.997
99953.96
99953.93
99953.91
99953.898
99954.324
99954.369
99954.45
99954.567
99954.711
99954.854
99983.173
99983.26
99997.402
99998.283
99997.308
99995.977
99977.089
99990.023
99987.311
99987.577
99974.079
99975.862
99978.685
99980.706
99981.497
99981.841
99953.369
99953.576
99953.808
99953.887
99953.935
99953.923
99953.848
99953.777
99953.723
99953.696
99953.687
99953.683
99954.13
99954.178
99954.266
99954.393
99954.558
99954.81
99982.903
99983.157
99995.41
99991.836
99976.561
99989.416
99986.595
99973.968
99990.215
99995.85
99996.395
99982.256
99982.455
99982.593
99982.718
99953.999
99953.949
99953.88
99953.688
99953.527
99953.429
99953.41
99953.42
99953.43
99953.932
99953.982
99954.072
99954.204
99954.366
99982.711
99982.894
99997.037
99992.575
99976.895
99989.856
99972.632
99987.113
99997.411
99997.432
99983.206
99983.216
99983.231
99983.007
99982.745
99953.542
99953.188
99953.038
99953.055
99953.108
99953.141
99953.73
99953.781
99953.868
99953.994
99954.188
99982.325
99996.714
99976.811
99975.976
99988.877
99987.419
99973.027
99987.21
99998.616
99998.42
99983.612
99983.085
99982.568
99981.615
99952.493
99952.605
99952.744
99952.817
99953.521
99953.567
99953.64
99953.724
99982.024
99982.103
99996.431
99990.306
99975.894
99989.285
99987.219
99972.868
99987.229
99998.323
99997.43
99980.504
99980.559
99952.044
99952.344
99952.465
99953.301
99953.338
99953.385
99953.44
99981.461
99995.885
99975.419
99974.88
99988.169
99972.842
99986.78
99990.033
99979.138
99951.521
99951.934
99952.102
99953.07
99953.098
99953.09
99981.241
99980.841
99995.142
99988.333
99974.591
99974.135
99986.587
99972.318
99986.349
99991.385
99978.743
99951.15
99951.569
99951.761
99952.827
99952.848
99952.818
99980.659
99979.941
99987.262
99973.916
99973.706
99987.591
99985.976
99971.83
99986.196
99991.735
99978.586
99950.865
99951.263
99951.453
99952.584
99952.603
99952.563
99980.389
99979.814
99992.584
99973.008
99973.369
99973.098
99987.182
99971.518
99985.633
99977.371
99949.791
99950.556
99950.965
99951.157
99952.353
99952.369
99952.326
99952.035
99979.598
99992.466
99985.645
99972.903
99972.699
99986.863
99985.003
99970.764
99985.169
99977.482
99949.649
99950.302
99950.679
99950.873
99952.153
99952.166
99952.134
99951.945
99979.494
99978.254
99972.293
99972.617
99971.548
99985.968
99984.69
99970.494
99985.021
99977.258
99949.405
99950.027
99950.406
99950.605
99951.993
99952
99951.96
99951.796
99979.371
99978.499
99991.821
99985.223
99972.754
99972.424
99971.135
99968.611
99968.219
99968.28
99968.499
99968.722
99968.893
99969.014
99969.174
99969.364
99969.336
99969.286
99969.568
99970.505
99971.226
99971.535
99971.652
99971.544
99971.244
99970.896
99970.663
99970.557
99970.662
99970.516
99985.349
99977.038
99949.145
99949.763
99950.16
99950.365
99951.872
99951.866
99951.81
99951.662
99951.237
99978.59
99991.503
99972.665
99973.079
99972.291
99986.158
99969.843
99983.652
99983.29
99983.273
99983.313
99983.414
99983.5
99983.613
99984.09
99983.969
99983.674
99983.906
99984.266
99984.585
99984.761
99985.133
99985.181
99984.853
99984.358
99984.195
99984.023
99970.044
99970.022
99985.106
99991.077
99976.745
99948.942
99949.56
99949.966
99950.172
99951.773
99951.751
99951.683
99951.548
99951.265
99978.698
99991.652
99985.417
99973.613
99973.459
99972.099
99985.534
99983.481
99969.133
99969.35
99983.432
99982.362
99969.535
99982.59
99984.014
99984.517
99983.636
99969.627
99969.475
99969.449
99969.4
99984.463
99990.876
99976.62
99948.841
99949.438
99949.84
99950.043
99951.667
99951.629
99951.552
99951.412
99951.182
99978.711
99977.567
99985.988
99973.55
99974.774
99974.312
99972.402
99985.604
99981.83
99984.402
99984.103
99983.678
99982.936
99982.576
99982.678
99982.776
99983.175
99983.131
99983.03
99983.085
99983.208
99983.355
99969.494
99971.018
99985.74
99984.368
99969.179
99969.236
99968.971
99940.466
99968.748
99983.704
99990.621
99976.539
99948.863
99949.404
99949.788
99949.983
99951.528
99951.478
99951.393
99951.249
99951.019
99978.611
99977.691
99990.624
99973.078
99974.474
99989.483
99989.08
99987.168
99983.708
99968.387
99985.911
99980.776
99980.782
99980.879
99980.98
99981.08
99981.187
99981.29
99981.363
99981.414
99982.02
99971.647
99985.442
99984.558
99969.748
99941.099
99940.575
99968.316
99968.3
99982.963
99990.531
99976.558
99948.948
99949.446
99949.809
99949.994
99951.342
99951.288
99951.205
99951.068
99950.843
99950.308
99977.546
99989.684
99987.19
99974.739
99975.191
99988.683
99987.81
99987.029
99985.921
99984.913
99983.834
99981.599
99982.649
99970.477
99971.015
99971.219
99971.352
99971.454
99971.542
99971.618
99971.659
99971.596
99971.409
99971.714
99983.974
99969.419
99968.974
99968.471
99968.193
99968.22
99982.432
99976.217
99948.281
99949.046
99949.551
99949.897
99950.074
99951.105
99951.058
99950.992
99950.89
99950.733
99950.446
99949.943
99976.95
99975.576
99988.972
99975.55
99975.798
99988.995
99987.465
99986.17
99967.672
99969.536
99942.542
99942.961
99943.158
99943.305
99943.439
99943.565
99943.68
99943.775
99943.836
99971.453
99971.735
99982.95
99969.228
99969.014
99968.649
99968.441
99968.527
99982.593
99976.452
99948.585
99949.253
99949.726
99950.053
99950.222
99950.822
99950.791
99950.753
99950.7
99950.623
99950.503
99950.344
99950.06
99977.518
99977.201
99949.598
99948.647
99975.631
99973.39
99986.837
99982.433
99968.718
99941.995
99942.526
99942.743
99942.872
99942.995
99943.123
99943.258
99943.404
99943.562
99943.726
99971.503
99971.825
99983.061
99969.376
99982.979
99968.908
99968.839
99968.713
99968.489
99982.894
99984.227
99976.63
99948.867
99949.489
99949.947
99950.258
99950.421
99950.511
99950.499
99950.491
99950.483
99950.471
99950.445
99950.416
99950.388
99950.285
99950.36
99979.14
99978.652
99976.657
99974.886
99988.743
99968.565
99941.841
99942.456
99942.655
99942.718
99942.774
99942.853
99942.962
99943.097
99943.264
99943.468
99943.705
99971.577
99971.903
99983.576
99983.499
99982.981
99982.566
99983.097
99983.03
99983.365
99970.056
99970.728
99971.57
99986.592
99988.228
99991.202
99976.778
99949.151
99949.751
99950.195
99950.495
99950.653
99950.194
99950.199
99950.219
99950.249
99950.287
99950.328
99950.374
99950.453
99950.576
99979.163
99979.117
99993.955
99977.975
99976.056
99990.044
99969.429
99942.565
99942.89
99942.877
99942.804
99942.77
99942.792
99942.869
99942.993
99943.168
99943.406
99943.711
99971.654
99972.001
99983.876
99983.653
99968.851
99968.398
99982.342
99985.098
99986.932
99987.825
99974.343
99974.812
99975.364
99990.086
99991.082
99991.163
99977.071
99949.492
99950.037
99950.463
99950.755
99950.911
99949.896
99949.913
99949.951
99950.011
99950.088
99950.179
99950.281
99950.403
99950.567
99978.783
99979.113
99993.387
99991.985
99976.796
99990.483
99970.318
99943.239
99943.306
99943.094
99942.884
99942.763
99942.733
99942.773
99942.869
99943.032
99943.275
99943.631
99971.641
99971.977
99986.257
99983.984
99983.824
99982.793
99968.408
99982.4
99990.322
99991.52
99991.675
99977.38
99977.26
99977.244
99991.433
99991.72
99991.425
99977.37
99949.846
99950.324
99950.739
99951.028
99951.185
99949.628
99949.652
99949.701
99949.779
99949.885
99950.012
99950.156
99950.307
99950.474
99978.677
99978.786
99992.731
99977.356
99991.16
99989.404
99971.429
99944.015
99943.659
99943.196
99942.852
99942.669
99942.604
99942.59
99942.615
99942.718
99942.923
99943.291
99971.433
99971.903
99985.75
99984.802
99984.019
99969.012
99982.604
99993.208
99993.426
99993.084
99978.296
99977.726
99977.618
99949.522
99950.12
99950.589
99951.008
99951.304
99951.467
99949.389
99949.417
99949.472
99949.561
99949.686
99949.84
99950.015
99950.2
99950.387
99950.55
99978.889
99992.684
99991.801
99976.022
99988.401
99973.21
99973.268
99972.259
99971.443
99970.889
99970.587
99970.461
99970.395
99970.316
99970.287
99970.315
99970.395
99970.792
99971.668
99985.753
99984.919
99984.148
99969.425
99993.733
99992.377
99977.634
99949.735
99950.309
99950.819
99951.264
99951.578
99951.75
99949.177
99949.205
99949.263
99949.358
99949.494
99949.666
99949.866
99950.085
99950.315
99950.586
99978.923
99978.7
99992.265
99977.399
99975.954
99974.799
99974.836
99974.635
99974.73
99975.103
99988.235
99982.975
99981.95
99981.363
99981.054
99980.81
99980.466
99980.102
99979.93
99979.901
99979.933
99981.035
99971.511
99986.302
99985.296
99970.281
99983.666
99988.216
99976.389
99949.671
99950.419
99951.03
99951.515
99951.851
99952.034
99948.991
99949.016
99949.072
99949.167
99949.308
99949.491
99949.706
99949.946
99950.201
99950.524
99978.943
99979.13
99992.903
99992.969
99993.156
99977.278
99976.926
99976.546
99976.307
99976.456
99990.306
99982.631
99981.902
99981.584
99981.431
99981.376
99981.253
99981.049
99980.953
99980.953
99980.94
99982.387
99971.689
99986.108
99985.126
99984.414
99975.13
99948.743
99949.825
99950.625
99951.274
99951.778
99952.127
99952.319
99948.828
99948.848
99948.898
99948.988
99949.126
99949.311
99949.529
99949.772
99950.024
99950.337
99978.769
99979.127
99993.2
99993.034
99993.168
99978.905
99978.062
99977.866
99977.375
99977.079
99991.376
99988.031
99986.77
99986.241
99985.222
99972.306
99972.282
99985.379
99985.898
99986.231
99986.343
99985.581
99971.324
99971.501
99971.371
99985.064
99989.208
99975.608
99949.25
99950.165
99950.925
99951.555
99952.05
99952.399
99952.593
99948.682
99948.696
99948.736
99948.818
99948.947
99949.123
99949.332
99949.559
99949.786
99950.033
99950.327
99979.038
99979.358
99979.709
99993.869
99993.561
99979.04
99979.155
99992.518
99991.476
99989.884
99986.102
99985.459
99984.832
99970.574
99972.54
99972.61
99985.573
99985.659
99985.304
99985.211
99971.233
99985.632
99971.793
99985.334
99989.828
99975.542
99948.657
99949.687
99950.521
99951.234
99951.829
99952.304
99952.644
99952.836
99948.548
99948.555
99948.586
99948.654
99948.769
99948.928
99949.117
99949.314
99949.501
99949.688
99949.942
99978.826
99980.077
99981.272
99981.274
99980.814
99980.261
99979.732
99978.484
99977.019
99975.259
99973.463
99972.523
99972.045
99972.184
99972.721
99972.987
99972.971
99972.76
99972.406
99972.338
99972.323
99972.291
99971.937
99985.364
99975.676
99948.347
99949.252
99950.103
99950.854
99951.509
99952.063
99952.513
99952.837
99953.022
99948.423
99948.424
99948.443
99948.496
99948.592
99948.729
99948.89
99949.049
99949.18
99949.265
99949.324
99977.998
99992.662
99997.247
99997.108
99996.175
99995.353
99994.628
99993.555
99992.035
99990.345
99988.699
99987.527
99986.899
99986.731
99986.854
99987.042
99987.253
99987.315
99987.038
99986.918
99972.734
99972.355
99971.923
99986.179
99989.907
99975.861
99948.951
99949.721
99950.467
99951.139
99951.73
99952.237
99952.651
99952.95
99953.122
99948.303
99948.298
99948.306
99948.343
99948.417
99948.53
99948.66
99948.777
99948.848
99948.819
99948.639
99976.541
99989.575
99986.836
99972.772
99972.927
99972.644
99972.02
99972.608
99987.019
99975.879
99948.617
99949.383
99950.091
99950.758
99951.351
99951.876
99952.329
99952.697
99952.962
99953.114
99948.186
99948.176
99948.173
99948.195
99948.248
99948.335
99948.435
99948.521
99948.559
99948.508
99948.339
99976.343
99975.58
99987.034
99972.689
99972.294
99986.009
99987.853
99972.744
99972.502
99987.047
99989.91
99976.017
99949.095
99949.747
99950.382
99950.962
99951.479
99951.936
99952.327
99952.641
99952.865
99952.991
99948.07
99948.056
99948.045
99948.052
99948.084
99948.147
99948.222
99948.284
99948.307
99948.262
99948.144
99976.074
99975.634
99989.416
99973.087
99972.658
99986.377
99988.435
99988.3
99972.922
99973.072
99987.581
99975.839
99948.715
99949.41
99950.021
99950.582
99951.078
99951.518
99951.904
99952.229
99952.486
99952.664
99952.762
99947.954
99947.938
99947.919
99947.915
99947.928
99947.968
99948.019
99948.058
99948.062
99948.005
99947.876
99947.558
99975.547
99989.117
99987.465
99973.076
99972.838
99986.628
99989.006
99973.876
99973.179
99974.01
99988.438
99989.519
99975.916
99949.092
99949.674
99950.217
99950.693
99951.109
99951.474
99951.788
99952.047
99952.246
99952.379
99952.452
99947.839
99947.821
99947.797
99947.782
99947.781
99947.798
99947.825
99947.841
99947.825
99947.752
99947.626
99947.405
99975.331
99988.869
99988.204
99973.519
99973.086
99986.908
99989.29
99974.034
99974.35
99989.086
99989.196
99989.327
99975.479
99948.65
99949.328
99949.868
99950.333
99950.724
99951.064
99951.356
99951.601
99951.798
99951.944
99952.038
99952.089
99947.723
99947.705
99947.678
99947.655
99947.641
99947.637
99947.642
99947.636
99947.6
99947.511
99947.362
99947.156
99975.034
99974.505
99974.26
99973.489
99973.211
99987.254
99989.669
99989.757
99975.081
99973.855
99987.175
99974.561
99948.228
99948.998
99949.545
99950.001
99950.377
99950.689
99950.956
99951.18
99951.363
99951.504
99951.605
99951.666
99951.698
99947.607
99947.589
99947.56
99947.531
99947.506
99947.486
99947.47
99947.441
99947.384
99947.277
99947.099
99946.87
99974.658
99974.11
99987.535
99988.476
99974.223
99973.572
99987.267
99990.789
99976.062
99975.492
99948.299
99948.83
99949.316
99949.725
99950.075
99950.361
99950.599
99950.799
99950.962
99951.091
99951.187
99951.25
99951.286
99951.303
99947.49
99947.474
99947.445
99947.411
99947.378
99947.342
99947.307
99947.258
99947.179
99947.054
99946.855
99946.583
99946.092
99973.83
99973.186
99986.798
99974.232
99974.074
99973.705
99976.679
99948.948
99949.226
99949.534
99949.829
99950.083
99950.292
99950.466
99950.608
99950.72
99950.805
99950.864
99950.898
99950.915
99950.923
99947.373
99947.359
99947.33
99947.294
99947.253
99947.206
99947.154
99947.086
99946.989
99946.852
99946.652
99946.407
99946.024
99945.613
99973.305
99972.83
99986.528
99973.845
99973.943
99973.876
99987.718
99990.356
99976.472
99949.042
99949.339
99949.609
99949.84
99950.027
99950.178
99950.3
99950.395
99950.466
99950.516
99950.547
99950.561
99950.566
99950.567
99947.256
99947.244
99947.217
99947.179
99947.133
99947.076
99947.01
99946.925
99946.814
99946.668
99946.474
99946.248
99945.943
99945.57
99945.136
99944.814
99972.37
99972.128
99985.919
99987.368
99973.59
99973.68
99987.634
99976.062
99948.709
99949.05
99949.354
99949.594
99949.781
99949.922
99950.029
99950.111
99950.169
99950.209
99950.234
99950.245
99950.246
99950.243
99950.243
99947.14
99947.13
99947.104
99947.066
99947.016
99946.952
99946.872
99946.774
99946.65
99946.5
99946.315
99946.103
99945.835
99945.514
99945.132
99944.766
99944.427
99971.919
99971.714
99985.444
99973.085
99973.282
99973.437
99987.461
99989.409
99975.906
99948.791
99949.085
99949.342
99949.535
99949.68
99949.784
99949.858
99949.909
99949.94
99949.957
99949.963
99949.962
99949.955
99949.951
99949.954
99947.024
99947.016
99946.992
99946.955
99946.902
99946.832
99946.742
99946.633
99946.502
99946.35
99946.171
99945.969
99945.724
99945.436
99945.093
99944.73
99944.379
99944.072
99943.84
99971.382
99971.248
99985.083
99972.691
99944.997
99973.038
99986.98
99989.327
99975.463
99948.361
99948.773
99949.064
99949.283
99949.44
99949.55
99949.624
99949.672
99949.699
99949.711
99949.712
99949.706
99949.697
99949.689
99949.687
99949.691
99946.909
99946.902
99946.881
99946.844
99946.79
99946.716
99946.62
99946.503
99946.366
99946.211
99946.034
99945.837
99945.609
99945.343
99945.033
99944.701
99944.383
99944.107
99943.89
99943.733
99971.276
99971.277
99985.468
99972.259
99944.818
99972.816
99972.692
99986.154
99975.018
99947.93
99948.421
99948.747
99948.997
99949.181
99949.309
99949.394
99949.446
99949.475
99949.485
99949.483
99949.474
99949.461
99949.449
99949.441
99949.439
99949.441
99946.795
99946.789
99946.77
99946.734
99946.68
99946.603
99946.503
99946.38
99946.238
99946.078
99945.9
99945.707
99945.489
99945.24
99944.959
99944.665
99944.39
99944.159
99943.982
99943.859
99943.807
99943.878
99971.724
99944.393
99944.647
99944.757
99972.381
99972.121
99985.792
99988.396
99974.817
99947.986
99948.387
99948.675
99948.889
99949.044
99949.15
99949.216
99949.253
99949.268
99949.267
99949.256
99949.24
99949.224
99949.211
99949.203
99949.199
99949.2
99946.683
99946.678
99946.66
99946.626
99946.572
99946.493
99946.39
99946.263
99946.115
99945.951
99945.772
99945.58
99945.369
99945.136
99944.881
99944.625
99944.396
99944.212
99944.078
99943.995
99943.973
99944.04
99944.188
99944.399
99944.584
99944.652
99944.578
99944.483
99971.992
99971.933
99985.737
99974.198
99947.342
99947.899
99948.279
99948.549
99948.743
99948.877
99948.967
99949.02
99949.046
99949.052
99949.043
99949.027
99949.007
99948.989
99948.976
99948.966
99948.962
99948.964
99946.57
99946.566
99946.55
99946.518
99946.465
99946.386
99946.28
99946.15
99946
99945.833
99945.653
99945.462
99945.257
99945.039
99944.811
99944.592
99944.404
99944.262
99944.166
99944.115
99944.115
99944.177
99944.296
99944.447
99944.58
99944.647
99944.633
99944.582
99944.52
99972.016
99971.934
99971.887
99985.773
99987.439
99973.971
99947.304
99947.784
99948.136
99948.386
99948.564
99948.684
99948.762
99948.807
99948.826
99948.826
99948.813
99948.793
99948.771
99948.753
99948.738
99948.727
99948.723
99948.726
99946.457
99946.454
99946.44
99946.411
99946.36
99946.282
99946.176
99946.044
99945.892
99945.724
99945.545
99945.357
99945.162
99944.96
99944.758
99944.572
99944.42
99944.312
99944.246
99944.221
99944.238
99944.301
99944.401
99944.52
99944.628
99944.695
99944.712
99944.693
99944.644
99944.573
99944.488
99971.995
99971.942
99985.738
99973.335
99946.416
99947.138
99947.62
99947.957
99948.194
99948.359
99948.469
99948.539
99948.578
99948.593
99948.589
99948.573
99948.551
99948.528
99948.508
99948.493
99948.482
99948.478
99948.481
99946.342
99946.34
99946.328
99946.302
99946.255
99946.179
99946.075
99945.945
99945.793
99945.628
99945.452
99945.271
99945.087
99944.903
99944.724
99944.566
99944.445
99944.364
99944.322
99944.317
99944.348
99944.415
99944.507
99944.61
99944.706
99944.773
99944.803
99944.799
99944.765
99944.709
99944.64
99944.575
99944.521
99972.083
99972.12
99986.023
99986.602
99973.089
99946.385
99946.99
99947.436
99947.754
99947.977
99948.131
99948.234
99948.299
99948.334
99948.345
99948.339
99948.322
99948.299
99948.275
99948.254
99948.237
99948.226
99948.222
99948.224
99946.223
99946.222
99946.214
99946.192
99946.148
99946.077
99945.977
99945.851
99945.704
99945.544
99945.375
99945.204
99945.033
99944.866
99944.71
99944.577
99944.479
99944.42
99944.397
99944.407
99944.45
99944.522
99944.612
99944.711
99944.801
99944.868
99944.901
99944.898
99944.866
99944.815
99944.759
99944.713
99944.686
99944.693
99944.739
99972.37
99972.328
99985.947
99972.643
99945.591
99946.258
99946.819
99947.235
99947.531
99947.738
99947.882
99947.98
99948.041
99948.073
99948.082
99948.075
99948.056
99948.034
99948.01
99947.987
99947.969
99947.956
99947.951
99947.952
99946.099
99946.1
99946.095
99946.078
99946.04
99945.975
99945.882
99945.762
99945.624
99945.472
99945.314
99945.155
99944.999
99944.849
99944.713
99944.601
99944.523
99944.481
99944.473
99944.496
99944.549
99944.626
99944.72
99944.819
99944.91
99944.977
99945.007
99944.999
99944.958
99944.899
99944.841
99944.802
99944.801
99944.853
99944.964
99945.076
99972.681
99972.703
99945.353
99945.7
99946.175
99946.65
99947.019
99947.289
99947.481
99947.616
99947.707
99947.765
99947.795
99947.802
99947.793
99947.775
99947.752
99947.728
99947.704
99947.684
99947.669
99947.662
99947.662
99945.969
99945.972
99945.97
99945.959
99945.928
99945.871
99945.787
99945.679
99945.552
99945.412
99945.267
99945.123
99944.982
99944.848
99944.73
99944.638
99944.577
99944.55
99944.555
99944.588
99944.649
99944.733
99944.834
99944.94
99945.035
99945.103
99945.129
99945.109
99945.051
99944.974
99944.902
99944.859
99944.865
99944.936
99945.076
99945.224
99945.309
99945.344
99945.488
99945.722
99946.081
99946.476
99946.791
99947.031
99947.208
99947.332
99947.418
99947.471
99947.499
99947.504
99947.494
99947.475
99947.452
99947.428
99947.403
99947.38
99947.363
99947.353
99947.352
99945.833
99945.838
99945.84
99945.834
99945.811
99945.765
99945.693
99945.598
99945.486
99945.362
99945.232
99945.103
99944.978
99944.861
99944.761
99944.686
99944.641
99944.627
99944.643
99944.685
99944.754
99944.848
99944.959
99945.075
99945.179
99945.251
99945.272
99945.238
99945.157
99945.054
99944.957
99944.897
99944.895
99944.966
99945.11
99945.277
99945.403
99945.453
99945.516
99945.674
99945.953
99946.279
99946.547
99946.759
99946.919
99947.033
99947.112
99947.161
99947.183
99947.185
99947.174
99947.154
99947.132
99947.107
99947.081
99947.055
99947.035
99947.023
99947.02
99945.691
99945.697
99945.703
99945.703
99945.689
99945.655
99945.597
99945.519
99945.424
99945.318
99945.206
99945.093
99944.984
99944.885
99944.802
99944.744
99944.714
99944.713
99944.739
99944.79
99944.868
99944.972
99945.096
99945.227
99945.343
99945.421
99945.44
99945.391
99945.284
99945.149
99945.019
99944.93
99944.907
99944.963
99945.097
99945.258
99945.388
99945.442
99945.485
99945.602
99945.809
99946.065
99946.288
99946.473
99946.614
99946.717
99946.79
99946.834
99946.847
99946.845
99946.831
99946.811
99946.787
99946.762
99946.735
99946.707
99946.684
99946.671
99946.666
99945.543
99945.55
99945.56
99945.567
99945.562
99945.541
99945.499
99945.44
99945.365
99945.279
99945.186
99945.091
99945
99944.918
99944.853
99944.812
99944.797
99944.807
99944.843
99944.904
99944.992
99945.108
99945.246
99945.392
99945.522
99945.608
99945.626
99945.565
99945.434
99945.265
99945.097
99944.97
99944.913
99944.942
99945.052
99945.199
99945.32
99945.376
99945.416
99945.503
99945.647
99945.837
99946.018
99946.173
99946.294
99946.386
99946.451
99946.486
99946.49
99946.481
99946.461
99946.44
99946.417
99946.392
99946.364
99946.335
99946.31
99946.294
99946.288
99945.391
99945.4
99945.413
99945.425
99945.43
99945.422
99945.398
99945.359
99945.306
99945.242
99945.17
99945.095
99945.024
99944.961
99944.915
99944.89
99944.888
99944.909
99944.955
99945.025
99945.124
99945.251
99945.402
99945.56
99945.702
99945.798
99945.818
99945.748
99945.597
99945.397
99945.191
99945.023
99944.926
99944.917
99944.995
99945.12
99945.232
99945.288
99945.32
99945.375
99945.46
99945.59
99945.731
99945.855
99945.956
99946.031
99946.084
99946.106
99946.101
99946.087
99946.064
99946.042
99946.018
99945.993
99945.964
99945.935
99945.909
99945.891
99945.883
99945.239
99945.249
99945.263
99945.281
99945.294
99945.299
99945.292
99945.274
99945.244
99945.203
99945.155
99945.104
99945.055
99945.013
99944.986
99944.977
99944.987
99945.018
99945.071
99945.148
99945.253
99945.386
99945.541
99945.705
99945.853
99945.954
99945.976
99945.903
99945.741
99945.522
99945.288
99945.085
99944.949
99944.9
99944.937
99945.029
99945.121
99945.168
99945.185
99945.209
99945.244
99945.322
99945.423
99945.515
99945.592
99945.645
99945.678
99945.684
99945.67
99945.655
99945.632
99945.608
99945.585
99945.562
99945.534
99945.506
99945.48
99945.462
99945.453
99945.097
99945.106
99945.121
99945.14
99945.158
99945.172
99945.18
99945.181
99945.174
99945.158
99945.138
99945.113
99945.09
99945.072
99945.064
99945.069
99945.089
99945.125
99945.178
99945.252
99945.349
99945.469
99945.607
99945.755
99945.892
99945.986
99946.008
99945.939
99945.786
99945.574
99945.342
99945.13
99944.974
99944.893
99944.889
99944.939
99945
99945.025
99945.017
99945.005
99945.004
99945.027
99945.079
99945.129
99945.171
99945.194
99945.204
99945.195
99945.179
99945.167
99945.15
99945.134
99945.115
99945.097
99945.076
99945.055
99945.034
99945.017
99945.01
99944.95
99944.96
99944.973
99944.991
99945.011
99945.033
99945.055
99945.074
99945.091
99945.104
99945.114
99945.12
99945.127
99945.135
99945.146
99945.162
99945.185
99945.217
99945.26
99945.316