/*--------------------------------*- C++ -*----------------------------------*\
  =========                 |
  \\      /  F ield         | OpenFOAM: The Open Source CFD Toolbox
   \\    /   O peration     | Website:  https://openfoam.org
    \\  /    A nd           | Version:  8
     \\/     M anipulation  |
\*---------------------------------------------------------------------------*/
FoamFile
{
    version     2.0;
    format      ascii;
    class       volScalarField;
    location    "7200/air";
    object      p_rgh;
}
// * * * * * * * * * * * * * * * * * * * * * * * * * * * * * * * * * * * * * //

dimensions      [1 -1 -2 0 0 0 0];

internalField   nonuniform List<scalar> 
167754
(
100010.96
100010.98
100011.01
100011.07
100011.13
100011.22
100011.31
100011.41
100011.52
100011.64
100011.76
100011.9
100012.04
100012.2
100012.37
100012.56
100012.78
100013.03
100013.31
100013.64
100014
100014.39
100014.79
100015.19
100015.55
100015.86
100016.08
100016.2
100016.22
100016.15
100015.98
100015.74
100015.44
100015.1
100014.72
100014.32
100013.91
100013.5
100013.09
100012.7
100012.32
100011.98
100011.67
100011.39
100011.15
100010.94
100010.75
100010.59
100010.45
100010.34
100010.24
100010.15
100010.08
100010.01
100009.95
100009.91
100009.87
100009.84
100009.83
100011.01
100011.02
100011.06
100011.1
100011.17
100011.24
100011.33
100011.42
100011.53
100011.64
100011.76
100011.89
100012.02
100012.17
100012.34
100012.54
100012.75
100013
100013.27
100013.58
100013.93
100014.31
100014.7
100015.09
100015.46
100015.78
100016.01
100016.14
100016.17
100016.11
100015.95
100015.72
100015.43
100015.08
100014.7
100014.29
100013.88
100013.46
100013.05
100012.65
100012.28
100011.94
100011.64
100011.37
100011.14
100010.94
100010.77
100010.62
100010.5
100010.4
100010.32
100010.25
100010.19
100010.13
100010.09
100010.04
100010.01
100009.99
100009.97
100011.08
100011.1
100011.13
100011.17
100011.23
100011.3
100011.37
100011.46
100011.55
100011.65
100011.76
100011.87
100011.99
100012.13
100012.28
100012.45
100012.64
100012.86
100013.09
100013.36
100013.67
100014.05
100014.43
100014.81
100015.2
100015.54
100015.77
100015.91
100015.94
100015.86
100015.71
100015.49
100015.21
100014.9
100014.55
100014.18
100013.77
100013.36
100012.95
100012.55
100012.17
100011.84
100011.55
100011.31
100011.11
100010.94
100010.8
100010.68
100010.59
100010.52
100010.46
100010.4
100010.35
100010.31
100010.26
100010.22
100010.19
100010.16
100010.15
100011.17
100011.19
100011.22
100011.26
100011.32
100011.38
100011.45
100011.53
100011.61
100011.69
100011.78
100011.87
100011.96
100012.07
100012.18
100012.3
100012.43
100012.59
100012.75
100012.91
100013.18
100013.54
100013.93
100014.24
100014.65
100015.01
100015.25
100015.41
100015.44
100015.37
100015.22
100014.99
100014.7
100014.39
100014.07
100013.75
100013.43
100013.08
100012.72
100012.36
100012
100011.69
100011.43
100011.22
100011.06
100010.94
100010.84
100010.76
100010.7
100010.66
100010.62
100010.58
100010.53
100010.49
100010.45
100010.41
100010.37
100010.34
100010.32
100011.24
100011.26
100011.29
100011.34
100011.4
100011.46
100011.53
100011.6
100011.68
100011.75
100011.82
100011.88
100011.94
100011.98
100012.02
100012.06
100012.12
100012.19
100012.33
100012.44
100012.51
100012.67
100012.9
100013.23
100013.62
100014.03
100014.28
100014.46
100014.53
100014.49
100014.4
100014.22
100013.98
100013.67
100013.35
100013.04
100012.75
100012.47
100012.19
100011.91
100011.64
100011.4
100011.21
100011.07
100010.97
100010.9
100010.86
100010.82
100010.8
100010.79
100010.76
100010.74
100010.7
100010.66
100010.61
100010.56
100010.52
100010.49
100010.47
100011.26
100011.28
100011.32
100011.38
100011.44
100011.51
100011.58
100011.66
100011.74
100011.82
100011.88
100011.9
100011.89
100011.85
100011.79
100011.74
100011.71
100011.84
100011.92
100012
100012.17
100011.45
100011.68
100011.82
100012.14
100012.36
100012.76
100013.01
100013.2
100013.25
100013.24
100013.09
100012.87
100012.63
100012.43
100012.21
100011.93
100011.65
100011.38
100011.12
100010.92
100010.8
100010.76
100010.75
100010.76
100010.78
100010.8
100010.83
100010.86
100010.87
100010.87
100010.85
100010.82
100010.77
100010.72
100010.67
100010.62
100010.58
100010.56
100011.23
100011.26
100011.3
100011.36
100011.43
100011.51
100011.59
100011.68
100011.78
100011.9
100011.96
100011.93
100011.84
100011.7
100011.51
100011.36
100011.34
100011.58
100011.83
100012.08
100009.95
100009.97
100009.99
100009.46
100009.59
100009.77
100010.66
100011.09
100011.48
100011.63
100011.61
100011.57
100011.43
100011.28
100011.14
100010.97
100010.78
100010.49
100010.13
100009.88
100009.84
100009.98
100010.18
100010.35
100010.51
100010.63
100010.74
100010.82
100010.88
100010.9
100010.9
100010.88
100010.83
100010.78
100010.72
100010.67
100010.62
100010.6
100011.15
100011.18
100011.23
100011.29
100011.38
100011.46
100011.56
100011.65
100011.79
100011.99
100012.15
100012.06
100011.85
100011.57
100011.19
100011.04
100010.87
100011.32
100008.14
100008.17
100008.16
100007.1
100007.02
100007.75
100009.07
100009.56
100009.84
100009.95
100010.03
100009.99
100009.84
100009.71
100009.48
100009.02
100008.63
100008.63
100008.95
100009.38
100009.76
100010.09
100010.35
100010.55
100010.7
100010.81
100010.86
100010.88
100010.87
100010.82
100010.77
100010.71
100010.65
100010.61
100010.58
100011.02
100011.05
100011.11
100011.18
100011.27
100011.37
100011.48
100011.58
100011.8
100012.02
100012.56
100012.47
100011.99
100011.56
100011.04
100010.56
100010.39
100006.79
100006.52
100006.74
100005.19
100005.63
100006.91
100007.77
100008.27
100008.53
100008.58
100008.55
100008.25
100007.5
100007.03
100007.2
100007.79
100008.54
100009.13
100009.62
100010
100010.29
100010.52
100010.68
100010.77
100010.8
100010.8
100010.76
100010.71
100010.65
100010.59
100010.55
100010.52
100010.86
100010.89
100010.95
100011.03
100011.13
100011.24
100011.38
100011.53
100011.63
100012.03
100013.32
100013.02
100012.46
100011.76
100011.03
100010.34
100010.28
100006.39
100005.72
100005.16
100004.73
100005.56
100006.38
100006.86
100007.03
100006.76
100005.43
100004.95
100005.4
100006.61
100007.8
100008.66
100009.31
100009.77
100010.09
100010.36
100010.55
100010.66
100010.71
100010.7
100010.66
100010.6
100010.54
100010.48
100010.44
100010.41
100010.67
100010.71
100010.77
100010.86
100010.97
100011.09
100011.27
100011.47
100011.65
100011.73
100012.97
100011.95
100010.93
100010.21
100005.79
100004.8
100004.2
100004.65
100004.73
100004.15
100003.13
100002.94
100003.27
100005.24
100007.39
100008.55
100009.32
100009.76
100010.09
100010.36
100010.53
100010.61
100010.65
100010.62
100010.56
100010.48
100010.4
100010.34
100010.29
100010.26
100010.47
100010.51
100010.58
100010.67
100010.79
100010.92
100011.18
100011.3
100011.49
100012.28
100011.27
100009.92
100005.24
100004.05
100000.79
100001.02
100001.57
100003.77
100006.82
100009.01
100009.89
100010.23
100010.4
100010.6
100010.72
100010.73
100010.71
100010.63
100010.49
100010.35
100010.24
100010.16
100010.11
100010.08
100010.27
100010.31
100010.38
100010.48
100010.62
100010.83
100010.9
100011.24
100009.3
100005.9
100004.58
100003.32
100000.41
100002.14
100003.97
100009.86
100010.49
100010.77
100011.1
100011.25
100011.27
100011.09
100010.96
100010.77
100010.49
100010.24
100010.05
100009.95
100009.89
100009.87
100010.06
100010.1
100010.18
100010.29
100010.43
100010.7
100010.9
100011.11
100006.71
100004.99
100003.9
100000.6
100001.15
100011.43
100011.76
100011.92
100011.84
100011.87
100011.61
100011.26
100010.57
100010.11
100009.81
100009.69
100009.65
100009.62
100009.85
100009.89
100009.97
100010.09
100010.28
100010.36
100010.71
100004.81
100003.99
100003.02
100001.08
100001.06
100001.2
100012.63
100012.58
100012.2
100011.68
100011.17
100010.16
100009.46
100009.36
100009.35
100009.35
100009.63
100009.67
100009.74
100009.84
100010.08
100010.23
100010.46
100004.29
100003.82
100003.2
100000.93
100000.92
100000.97
100012.34
100011.58
100009.11
100009.11
100008.92
100009.02
100009.04
100009.39
100009.43
100009.5
100009.62
100009.56
100009.91
100003.27
100002.89
100002.41
100000.55
100000.63
100004.06
100007.74
100008.45
100008.65
100008.71
100009.13
100009.17
100009.2
100009.32
100009.04
100009.19
100002.28
100002.43
100002.12
100000.1
100000.15
100000.2
100005.46
100007.34
100008.06
100008.3
100008.38
100008.85
100008.88
100008.87
100008.69
100008.04
100001.06
100001.7
100001.71
100001.71
99999.611
99999.769
99999.873
100005.93
100007.15
100007.76
100007.99
100008.07
100008.56
100008.58
100008.54
100008.36
100007.82
100006.63
100000.76
100001.19
100001.29
100001.51
99999.129
99999.412
100006.1
100006.97
100007.45
100007.67
100007.76
100008.28
100008.29
100008.24
100007.94
100007.56
100006.49
99999.499
100000.65
100000.66
100000.87
99998.388
99998.46
99998.93
100006.14
100006.79
100007.16
100007.36
100007.46
100008.03
100008.04
100007.99
100007.78
100007.38
100006.21
99999.999
100000.47
100000.01
100000.45
99998.146
99998.391
99998.879
100005.92
100006.48
100006.84
100007.06
100007.17
100007.83
100007.83
100007.77
100007.58
100007.21
100006.37
100005.66
99999.093
100000.5
100000.35
99999.523
99997.582
99997.055
99997.025
99997.229
99997.452
99997.616
99997.751
99997.869
99997.947
99997.892
99997.875
99997.964
99998.306
99998.792
99999.08
99999.16
99998.991
99998.676
99998.319
99998.052
99997.905
99998.17
99998.591
99999.206
100005.61
100006.17
100006.54
100006.78
100006.9
100007.67
100007.66
100007.58
100007.41
100006.93
100006.42
100005.41
100000.39
100000.91
100000.46
100000.29
99998.356
99997.646
99997.241
99997.277
99997.254
99997.366
99997.54
99997.71
99997.82
99997.749
99997.768
99997.871
99998.117
99998.396
99998.638
99998.956
99998.832
99998.518
99998.113
99997.864
99997.643
99997.777
99998.249
99998.954
100005.07
100005.38
100005.93
100006.3
100006.56
100006.69
100007.54
100007.51
100007.43
100007.28
100006.96
100006.52
100005.55
99999.326
100001.45
100001.5
100000.7
100000.23
99998.151
99997.441
99997.233
99997.616
99997.606
99997.739
99997.811
99998.26
99998.734
99997.322
99997.429
99997.154
99997.334
99997.712
99998.302
100004.95
100005.21
100005.77
100006.14
100006.41
100006.53
100007.41
100007.37
100007.28
100007.13
100006.88
100006.53
100005.45
99999.823
100001.38
100002.84
100002.69
100001.39
100001.02
99997.549
99998.292
99997.709
99997.54
99997.445
99997.539
99997.58
99997.599
99997.663
99997.738
99997.85
99997.982
99998.082
99998.157
99998.171
99998.701
99998.895
99997.849
99997.263
99996.926
99996.642
99996.612
99997.071
99997.527
100004.81
100005.1
100005.7
100006.07
100006.33
100006.45
100007.25
100007.19
100007.11
100006.96
100006.75
100006.45
100005.61
100004.59
100001.01
100002.59
100003.71
100003.52
100001.73
99999.364
99998.776
99999.437
99997.478
99997.616
99997.719
99997.814
99997.908
99998.016
99998.119
99998.189
99998.234
99998.212
99998.617
99998.409
99997.671
99997.1
99996.466
99996.145
99996.144
99996.393
99996.71
100004.73
100005.06
100005.74
100006.08
100006.32
100006.44
100007.03
100006.98
100006.9
100006.78
100006.58
100006.13
100005.53
100003.79
100001.16
100002.75
100003.65
100003.19
100003.16
100002.15
100000.8
99999.829
99998.527
99995.854
99997.197
99997.937
99998.221
99998.387
99998.504
99998.597
99998.683
99998.761
99998.809
99998.787
99998.679
99998.632
99997.366
99997.006
99996.556
99996.122
99995.989
99996.264
99996.37
100004.88
100005.32
100005.83
100006.16
100006.39
100006.5
100006.77
100006.73
100006.67
100006.58
100006.45
100006.22
100005.8
100004.92
100003.51
100002.85
100003.51
100003.89
100003.26
100002.25
100003.39
99996.829
99997.701
99997.972
99998.114
99998.213
99998.319
99998.435
99998.553
99998.662
99998.75
99998.798
99998.814
99998.758
99997.307
99997.142
99996.672
99996.316
99996.222
99996.536
99996.451
100005.11
100005.63
100006.01
100006.31
100006.53
100006.63
100006.46
100006.43
100006.41
100006.37
100006.32
100006.24
100006.12
100005.86
100005.41
100005.14
100005.7
100005.25
100004.4
100003.58
100004.61
99996.102
99997.81
99998.21
99998.221
99998.177
99998.184
99998.252
99998.352
99998.474
99998.608
99998.747
99998.878
99998.952
99998.92
99997.48
99997.321
99996.717
99996.544
99996.533
99996.528
99996.491
99996.839
99998.05
100005.29
100005.86
100006.21
100006.5
100006.71
100006.81
100006.12
100006.12
100006.12
100006.14
100006.15
100006.16
100006.17
100006.18
100006.14
100006.34
100007.22
100006.97
100005.49
100005.19
100006.6
99997.978
99998.717
99998.662
99998.456
99998.29
99998.225
99998.246
99998.324
99998.442
99998.591
99998.768
99998.956
99999.092
99999.127
99997.538
99997.353
99996.717
99996.271
99996.835
99996.759
99997.129
99997.884
99998.725
99999.706
100000.65
100002.14
100005.23
100005.48
100006.08
100006.42
100006.71
100006.92
100007.03
100005.78
100005.8
100005.83
100005.89
100005.95
100006.03
100006.12
100006.26
100006.46
100007.16
100007.24
100008.14
100006.76
100006.37
100007.94
99998.821
99999.317
99999.064
99998.719
99998.46
99998.325
99998.296
99998.347
99998.454
99998.607
99998.802
99999.017
99999.195
99999.273
99997.435
99997.45
99996.403
99995.946
99996.012
99998.765
100000.79
100001.69
100002.27
100002.91
100003.59
100004.21
100005.05
100005.39
100005.71
100006.29
100006.63
100006.93
100007.15
100007.26
100005.47
100005.49
100005.55
100005.63
100005.74
100005.88
100006.03
100006.21
100006.46
100006.78
100007.23
100007.56
100006.31
100007.13
100008.35
99999.711
99999.941
99999.475
99998.995
99998.647
99998.454
99998.388
99998.409
99998.492
99998.634
99998.819
99999.006
99999.158
99999.158
99999.295
99997.685
99997.531
99996.488
99995.916
99995.927
100004.07
100005.42
100005.58
100005.37
100005.42
100005.53
100005.6
100005.71
100005.6
100005.9
100006.48
100006.82
100007.15
100007.39
100007.52
100005.18
100005.22
100005.28
100005.39
100005.53
100005.7
100005.9
100006.11
100006.37
100006.67
100006.88
100006.86
100006.06
100006.13
100007.01
100000.8
100000.67
99999.935
99999.3
99998.874
99998.651
99998.564
99998.539
99998.554
99998.633
99998.765
99998.884
99998.965
99998.862
99998.77
99997.998
99997.592
99996.511
99996.296
100006.98
100007.34
100007.01
100006.34
100005.92
100005.99
100006.07
100006.6
100007
100007.37
100007.63
100007.77
100004.93
100004.97
100005.04
100005.16
100005.32
100005.52
100005.75
100006
100006.27
100006.53
100006.95
100006.78
100006.02
100005.59
100005.64
100002.35
100001.89
100000.8
99999.906
99999.321
99999.006
99998.874
99998.802
99998.707
99998.644
99998.606
99998.569
99998.584
99998.621
99998.769
99998.103
99997.738
99996.95
100007.54
100006.36
100005.78
100006.1
100006.67
100007.16
100007.58
100007.87
100008.03
100004.71
100004.75
100004.82
100004.95
100005.12
100005.34
100005.6
100005.89
100006.19
100006.55
100006.96
100006.85
100006.41
100006.1
100005.41
100003.95
100003.84
100003.56
100003.46
100003.69
100003.55
100001.57
100000.55
99999.945
99999.623
99999.347
99998.956
99998.562
99998.359
99998.296
99998.296
99998.396
99998.878
99999.536
99998.716
99997.708
99997.42
100002.24
100004.53
100005.96
100006.71
100007.32
100007.79
100008.12
100008.3
100004.52
100004.55
100004.63
100004.75
100004.93
100005.16
100005.44
100005.75
100006.08
100006.48
100006.96
100007.21
100006.99
100007.12
100007.43
100005.74
100005.39
100004.94
100004.59
100004.51
100004.31
100001.09
100000.44
100000.12
99999.996
99999.938
99999.786
99999.544
99999.368
99999.326
99999.28
99999.208
99999.237
99999.831
99998.831
99998.201
100003.21
100004.97
100006.07
100006.87
100007.52
100008.02
100008.37
100008.56
100004.34
100004.37
100004.44
100004.56
100004.74
100004.98
100005.26
100005.57
100005.91
100006.3
100006.79
100007.2
100007.27
100007.13
100007.31
100007.16
100006.33
100006.1
100005.56
100005.18
100005.58
100001.68
100000.46
100000.14
100000.08
100000.33
100000.33
100000.23
99999.754
99999.848
99999.865
99999.645
99999.011
99999.134
99999.021
99998.854
100003.29
100003.73
100005.46
100006.38
100007.14
100007.77
100008.27
100008.62
100008.82
100004.19
100004.21
100004.27
100004.39
100004.56
100004.78
100005.06
100005.36
100005.68
100006.03
100006.43
100007.13
100007.48
100007.92
100007.99
100007.69
100007.31
100007.45
100006.67
100005.63
100004.52
100001.48
100001.01
100000.47
100000.3
100000.52
100000.74
100001.12
100001.26
100000.81
100000.54
100000.02
99999.551
99999.565
99999.239
100003.77
100003.64
100004.83
100005.87
100006.71
100007.42
100008.01
100008.5
100008.84
100009.03
100004.05
100004.07
100004.12
100004.21
100004.37
100004.58
100004.84
100005.12
100005.4
100005.71
100006.09
100006.93
100008.16
100009.35
100009.4
100008.92
100008.38
100007.91
100006.65
100005.19
100003.58
100001.94
100001.05
100000.55
100000.46
100000.7
100000.96
100001.26
100001.15
100000.74
100000.54
100000.3
100000.12
99999.73
99999.205
100003.75
100004.49
100005.4
100006.25
100007.01
100007.66
100008.22
100008.67
100009
100009.19
100003.92
100003.93
100003.96
100004.05
100004.18
100004.37
100004.6
100004.84
100005.08
100005.29
100005.47
100006.04
100006.55
100011.12
100011
100010.06
100009.24
100008.52
100007.45
100005.89
100004.17
100002.5
100001.31
100000.68
100000.5
100000.61
100000.79
100001.02
100001.08
100000.78
100000.67
100000.43
100000.11
99999.704
100000.05
100003.91
100003.94
100005.08
100005.84
100006.59
100007.26
100007.85
100008.36
100008.78
100009.08
100009.26
100003.79
100003.79
100003.82
100003.88
100003.99
100004.16
100004.35
100004.56
100004.73
100004.82
100004.74
100004.52
100003.36
100000.69
100000.51
100000.65
100000.4
99999.815
100000.4
100000.88
100003.92
100004.71
100005.48
100006.18
100006.85
100007.44
100007.96
100008.42
100008.79
100009.06
100009.21
100003.66
100003.66
100003.67
100003.72
100003.81
100003.95
100004.11
100004.28
100004.41
100004.48
100004.42
100004.33
100003.4
100000.81
100000.52
99999.995
99999.793
100001.85
100000.55
100000.31
100001.01
100003.89
100004.07
100005.17
100005.81
100006.44
100007.02
100007.53
100007.99
100008.38
100008.7
100008.92
100009.05
100003.54
100003.53
100003.53
100003.56
100003.63
100003.74
100003.87
100004.01
100004.13
100004.2
100004.19
100004.07
100003.53
100003.11
100000.88
100000.45
100000.2
100002.37
100002.29
100000.76
100000.9
100001.51
100003.84
100004.75
100005.45
100006.06
100006.61
100007.1
100007.54
100007.92
100008.25
100008.51
100008.68
100008.78
100003.41
100003.4
100003.4
100003.41
100003.46
100003.54
100003.65
100003.76
100003.85
100003.9
100003.89
100003.64
100003.49
100002.93
100001.32
100000.84
100000.55
100000.42
100002.99
100001.74
100001.01
100001.82
100002.33
100003.51
100003.93
100005.11
100005.68
100006.22
100006.69
100007.1
100007.46
100007.78
100008.03
100008.23
100008.36
100008.43
100003.28
100003.27
100003.26
100003.26
100003.29
100003.35
100003.43
100003.51
100003.58
100003.61
100003.59
100003.46
100003.3
100002.72
100002.01
100001.35
100000.81
100000.74
100003.33
100001.84
100002.15
100003.01
100003.02
100003.16
100003.45
100004.63
100005.32
100005.85
100006.31
100006.69
100007.03
100007.32
100007.56
100007.75
100007.9
100007.99
100008.04
100003.15
100003.14
100003.13
100003.12
100003.13
100003.17
100003.22
100003.27
100003.31
100003.31
100003.27
100003.15
100003
100002.36
100002.16
100001.39
100000.9
100000.98
100003.57
100003.72
100002.89
100001.73
100001.14
100002.49
100004.17
100004.96
100005.51
100005.96
100006.33
100006.63
100006.89
100007.11
100007.29
100007.43
100007.53
100007.59
100007.62
100003.03
100003.01
100003
100002.98
100002.98
100002.99
100003.02
100003.04
100003.05
100003.02
100002.93
100002.79
100002.61
100001.99
100001.34
100002.23
100002.12
100001.43
100001.16
100004.74
100003.89
100003.37
100004.18
100004.75
100005.25
100005.66
100006.01
100006.29
100006.52
100006.71
100006.87
100007
100007.1
100007.16
100007.19
100007.21
100002.9
100002.89
100002.87
100002.85
100002.83
100002.83
100002.83
100002.82
100002.8
100002.74
100002.62
100002.42
100001.97
100001.72
100000.98
100000.48
100001.94
100001.88
100001.48
100004.54
100004.83
100005.12
100005.44
100005.74
100005.99
100006.19
100006.36
100006.5
100006.61
100006.7
100006.76
100006.79
100006.81
100006.82
100002.77
100002.76
100002.74
100002.71
100002.69
100002.67
100002.65
100002.62
100002.57
100002.48
100002.34
100002.15
100001.81
100001.4
100001.13
100000.55
100000.24
100001.47
100001.67
100001.62
100001.55
100004.2
100004.37
100004.91
100005.21
100005.49
100005.73
100005.91
100006.06
100006.18
100006.27
100006.34
100006.4
100006.43
100006.44
100006.45
100006.45
100002.64
100002.63
100002.61
100002.58
100002.55
100002.52
100002.47
100002.42
100002.34
100002.24
100002.09
100001.91
100001.63
100001.26
100000.78
100000.34
100000.01
99999.669
99999.472
100001.08
100001.25
100001.39
100001.45
100003.88
100004.52
100004.89
100005.2
100005.45
100005.65
100005.78
100005.89
100005.97
100006.03
100006.08
100006.1
100006.12
100006.12
100006.12
100006.12
100002.51
100002.5
100002.48
100002.45
100002.41
100002.37
100002.31
100002.23
100002.14
100002.02
100001.86
100001.68
100001.42
100001.09
100000.67
100000.23
99999.82
99999.541
99999.277
99999.102
100000.81
100000.99
100001.09
100001.18
100003.26
100003.74
100004.58
100004.9
100005.17
100005.38
100005.53
100005.63
100005.71
100005.76
100005.79
100005.82
100005.83
100005.83
100005.83
100005.83
100005.83
100002.38
100002.37
100002.35
100002.32
100002.28
100002.23
100002.15
100002.06
100001.95
100001.81
100001.65
100001.46
100001.21
100000.9
100000.5
100000.08
99999.717
99999.423
99999.203
99998.987
99998.803
99998.663
100000.4
100000.52
100000.71
100000.78
100003.01
100003.22
100004.09
100004.54
100004.85
100005.09
100005.26
100005.38
100005.45
100005.51
100005.54
100005.56
100005.56
100005.56
100005.56
100005.55
100005.56
100005.56
100002.25
100002.24
100002.23
100002.2
100002.15
100002.09
100002
100001.9
100001.77
100001.62
100001.45
100001.25
100001
100000.69
100000.32
99999.949
99999.634
99999.392
99999.216
99999.077
99998.904
99998.86
99999.212
99999.936
100000.19
100000.41
100000.26
99999.818
100002.69
100003.58
100004.14
100004.49
100004.76
100004.98
100005.11
100005.2
100005.26
100005.3
100005.31
100005.32
100005.32
100005.31
100005.31
100005.3
100005.3
100005.31
100002.12
100002.12
100002.1
100002.07
100002.02
100001.95
100001.86
100001.74
100001.6
100001.44
100001.26
100001.04
100000.79
100000.48
100000.15
99999.819
99999.555
99999.36
99999.224
99999.136
99999.101
99999.173
99999.351
99999.706
99999.919
99999.973
99999.952
99999.685
99999.568
100002.09
100002.51
100003.63
100004.08
100004.4
100004.64
100004.82
100004.93
100005.01
100005.05
100005.08
100005.09
100005.08
100005.08
100005.07
100005.06
100005.06
100005.06
100005.06
100001.99
100001.99
100001.98
100001.95
100001.9
100001.82
100001.72
100001.59
100001.44
100001.27
100001.07
100000.85
100000.58
100000.29
99999.983
99999.705
99999.487
99999.334
99999.235
99999.184
99999.186
99999.266
99999.423
99999.622
99999.777
99999.822
99999.739
99999.642
99999.558
99999.495
99999.472
100001.77
100002.89
100003.53
100003.95
100004.25
100004.49
100004.63
100004.73
100004.8
100004.83
100004.85
100004.85
100004.85
100004.83
100004.83
100004.82
100004.81
100004.81
100004.82
100001.87
100001.86
100001.85
100001.82
100001.77
100001.69
100001.59
100001.45
100001.29
100001.1
100000.89
100000.66
100000.4
100000.12
99999.848
99999.613
99999.436
99999.319
99999.249
99999.225
99999.247
99999.324
99999.448
99999.591
99999.71
99999.765
99999.747
99999.703
99999.65
99999.581
99999.5
99999.454
99999.451
100001.12
100001.59
100002.85
100003.4
100003.8
100004.08
100004.29
100004.42
100004.51
100004.57
100004.6
100004.61
100004.61
100004.6
100004.59
100004.58
100004.57
100004.57
100004.57
100004.57
100001.74
100001.74
100001.73
100001.7
100001.65
100001.57
100001.46
100001.31
100001.14
100000.95
100000.74
100000.5
100000.25
99999.988
99999.746
99999.547
99999.404
99999.316
99999.271
99999.267
99999.304
99999.38
99999.486
99999.604
99999.706
99999.769
99999.787
99999.774
99999.741
99999.689
99999.628
99999.557
99999.496
99999.501
100000.91
100001.88
100002.69
100003.23
100003.61
100003.88
100004.07
100004.19
100004.27
100004.33
100004.36
100004.37
100004.36
100004.35
100004.34
100004.33
100004.32
100004.31
100004.31
100004.32
100001.61
100001.61
100001.6
100001.57
100001.52
100001.44
100001.33
100001.18
100001.01
100000.82
100000.6
100000.37
100000.12
99999.887
99999.675
99999.506
99999.392
99999.326
99999.3
99999.313
99999.361
99999.441
99999.541
99999.648
99999.745
99999.814
99999.847
99999.849
99999.826
99999.787
99999.742
99999.703
99999.682
99999.646
99999.679
99999.744
100000.36
100000.71
100001.88
100002.54
100003.04
100003.41
100003.65
100003.82
100003.94
100004.02
100004.07
100004.1
100004.11
100004.1
100004.09
100004.08
100004.06
100004.05
100004.05
100004.05
100004.05
100001.47
100001.47
100001.46
100001.44
100001.4
100001.32
100001.21
100001.06
100000.89
100000.7
100000.48
100000.26
100000.03
99999.818
99999.632
99999.489
99999.397
99999.349
99999.339
99999.365
99999.423
99999.508
99999.609
99999.715
99999.811
99999.883
99999.922
99999.925
99999.902
99999.863
99999.825
99999.805
99999.812
99999.859
99999.948
99999.953
99999.907
99999.689
100000.23
100001.03
100001.77
100002.37
100002.84
100003.17
100003.4
100003.56
100003.67
100003.75
100003.8
100003.82
100003.83
100003.82
100003.81
100003.8
100003.78
100003.77
100003.77
100003.76
100003.77
100001.33
100001.33
100001.33
100001.31
100001.27
100001.19
100001.09
100000.95
100000.78
100000.59
100000.39
100000.18
99999.969
99999.776
99999.613
99999.493
99999.418
99999.385
99999.388
99999.424
99999.491
99999.582
99999.688
99999.799
99999.9
99999.975
100000.01
100000.01
99999.977
99999.927
99999.883
99999.864
99999.891
99999.978
100000.13
100000.26
100000.24
100000.28
100000.71
100001.15
100001.67
100002.2
100002.62
100002.91
100003.12
100003.28
100003.38
100003.46
100003.51
100003.53
100003.54
100003.53
100003.52
100003.51
100003.49
100003.48
100003.47
100003.46
100003.46
100001.18
100001.18
100001.18
100001.17
100001.13
100001.07
100000.97
100000.84
100000.68
100000.5
100000.31
100000.12
99999.927
99999.755
99999.614
99999.513
99999.454
99999.434
99999.448
99999.493
99999.567
99999.666
99999.781
99999.901
100000.01
100000.09
100000.13
100000.11
100000.06
99999.989
99999.927
99999.899
99999.927
100000.03
100000.19
100000.35
100000.45
100000.57
100000.84
100001.17
100001.58
100002.03
100002.38
100002.64
100002.83
100002.98
100003.08
100003.15
100003.2
100003.22
100003.22
100003.22
100003.21
100003.19
100003.18
100003.16
100003.15
100003.14
100003.14
100001.02
100001.03
100001.03
100001.02
100000.99
100000.94
100000.85
100000.73
100000.59
100000.43
100000.25
100000.07
99999.904
99999.752
99999.631
99999.548
99999.504
99999.496
99999.519
99999.572
99999.654
99999.763
99999.89
100000.02
100000.14
100000.23
100000.26
100000.24
100000.16
100000.06
99999.972
99999.922
99999.936
100000.03
100000.19
100000.37
100000.52
100000.67
100000.86
100001.11
100001.46
100001.82
100002.11
100002.35
100002.53
100002.66
100002.76
100002.83
100002.86
100002.88
100002.89
100002.89
100002.88
100002.86
100002.84
100002.82
100002.81
100002.8
100002.8
100000.86
100000.86
100000.87
100000.87
100000.85
100000.8
100000.73
100000.63
100000.5
100000.36
100000.2
100000.04
99999.894
99999.763
99999.662
99999.596
99999.566
99999.569
99999.601
99999.662
99999.753
99999.873
100000.02
100000.16
100000.3
100000.4
100000.43
100000.39
100000.29
100000.16
100000.03
99999.948
99999.935
100000.01
100000.16
100000.33
100000.5
100000.65
100000.82
100001.04
100001.32
100001.6
100001.84
100002.05
100002.21
100002.33
100002.43
100002.49
100002.52
100002.54
100002.53
100002.53
100002.52
100002.5
100002.48
100002.46
100002.44
100002.43
100002.43
100000.68
100000.69
100000.7
100000.7
100000.69
100000.66
100000.6
100000.52
100000.42
100000.29
100000.16
100000.02
99999.897
99999.787
99999.706
99999.657
99999.64
99999.653
99999.694
99999.764
99999.865
99999.997
100000.15
100000.32
100000.47
100000.58
100000.61
100000.56
100000.44
100000.28
100000.11
99999.987
99999.937
99999.978
100000.1
100000.27
100000.43
100000.59
100000.75
100000.94
100001.15
100001.35
100001.56
100001.74
100001.88
100001.99
100002.08
100002.14
100002.16
100002.17
100002.15
100002.14
100002.14
100002.13
100002.1
100002.08
100002.06
100002.04
100002.03
100000.51
100000.51
100000.53
100000.53
100000.53
100000.51
100000.47
100000.41
100000.33
100000.23
100000.12
100000.01
99999.911
99999.824
99999.763
99999.73
99999.725
99999.747
99999.797
99999.876
99999.986
100000.13
100000.3
100000.48
100000.65
100000.77
100000.8
100000.75
100000.61
100000.41
100000.21
100000.05
99999.952
99999.954
100000.04
100000.19
100000.35
100000.5
100000.66
100000.82
100000.96
100001.1
100001.26
100001.41
100001.54
100001.64
100001.71
100001.75
100001.77
100001.77
100001.76
100001.74
100001.73
100001.71
100001.69
100001.66
100001.64
100001.62
100001.61
100000.33
100000.34
100000.35
100000.36
100000.37
100000.37
100000.34
100000.3
100000.25
100000.18
100000.09
100000.01
99999.936
99999.873
99999.832
99999.814
99999.82
99999.85
99999.907
99999.991
100000.11
100000.26
100000.43
100000.62
100000.79
100000.92
100000.96
100000.9
100000.75
100000.54
100000.31
100000.11
99999.984
99999.944
99999.995
100000.11
100000.26
100000.39
100000.52
100000.65
100000.73
100000.82
100000.95
100001.07
100001.17
100001.25
100001.3
100001.33
100001.33
100001.33
100001.31
100001.28
100001.27
100001.27
100001.25
100001.22
100001.2
100001.17
100001.16
100000.17
100000.17
100000.19
100000.2
100000.21
100000.22
100000.21
100000.19
100000.16
100000.12
100000.07
100000.02
99999.969
99999.932
99999.91
99999.906
99999.92
99999.953
100000.01
100000.09
100000.19
100000.33
100000.48
100000.65
100000.81
100000.93
100000.98
100000.93
100000.79
100000.59
100000.37
100000.17
100000.02
99999.951
99999.964
100000.04
100000.15
100000.27
100000.37
100000.45
100000.49
100000.54
100000.61
100000.69
100000.75
100000.8
100000.83
100000.84
100000.84
100000.84
100000.82
100000.81
100000.8
100000.79
100000.77
100000.75
100000.73
100000.71
100000.7
100000.01
100000.02
100000.03
100000.04
100000.05
100000.07
100000.07
100000.08
100000.07
100000.06
100000.04
100000.03
100000.01
99999.999