/*--------------------------------*- C++ -*----------------------------------*\
  =========                 |
  \\      /  F ield         | OpenFOAM: The Open Source CFD Toolbox
   \\    /   O peration     | Website:  https://openfoam.org
    \\  /    A nd           | Version:  8
     \\/     M anipulation  |
\*---------------------------------------------------------------------------*/
FoamFile
{
    version     2.0;
    format      ascii;
    class       volScalarField;
    location    "7200/air";
    object      rho;
}
// * * * * * * * * * * * * * * * * * * * * * * * * * * * * * * * * * * * * * //

dimensions      [1 -3 0 0 0 0 0];

internalField   nonuniform List<scalar> 
167754
(
1.1762342
1.1761833
1.1761781
1.176172
1.1761664
1.1761641
1.1761644
1.1761669
1.1761712
1.1761756
1.1761797
1.1761835
1.176196
1.1761959
1.1761967
1.1761993
1.1762003
1.1761921
1.1762046
1.1762067
1.1762053
1.1762053
1.1762128
1.17622
1.1762216
1.176224
1.17622
1.176221
1.1762032
1.1761999
1.1761976
1.1761946
1.1761925
1.1761907
1.1761925
1.1761876
1.1761883
1.1761903
1.1761911
1.1761845
1.1761885
1.1761873
1.1761875
1.1761865
1.1761829
1.1761778
1.1761713
1.1761715
1.1761791
1.1761891
1.1762028
1.1762175
1.1762306
1.1762424
1.1762524
1.1762603
1.1762657
1.176268
1.1762668
1.1763142
1.1763198
1.1763129
1.1763053
1.1762931
1.1762768
1.1762596
1.1762433
1.1762294
1.176219
1.1762118
1.1762079
1.1761977
1.1761962
1.1762038
1.1762177
1.1762241
1.1762203
1.1761997
1.1761763
1.176136
1.1760821
1.1760307
1.1759719
1.1759387
1.175904
1.1759135
1.1759369
1.1760085
1.1760322
1.1760863
1.1761244
1.1761491
1.1761712
1.1761846
1.1761934
1.1761964
1.1761978
1.1761988
1.1761977
1.1761939
1.1761959
1.1761973
1.1762007
1.1762083
1.17622
1.1762411
1.1762686
1.1762977
1.1763336
1.1763668
1.1763955
1.17642
1.1764409
1.1764579
1.1764709
1.1764797
1.1764837
1.1764831
1.1764988
1.1764968
1.1764842
1.1764621
1.1764344
1.176402
1.1763663
1.1763302
1.1762966
1.1762683
1.1762476
1.1762375
1.1762403
1.1762519
1.1762591
1.1762484
1.1762271
1.1761879
1.1761026
1.1759227
1.1756646
1.1754245
1.1751796
1.1750014
1.1748922
1.1748683
1.1749953
1.1751863
1.1754207
1.1756304
1.1757464
1.1758763
1.1759782
1.1760579
1.1761377
1.1761713
1.1761855
1.1761959
1.1762019
1.1762079
1.1762148
1.1762192
1.1762223
1.176227
1.1762402
1.176272
1.1763212
1.1763771
1.1764312
1.1764766
1.1765148
1.1765472
1.1765747
1.1765979
1.1766171
1.1766321
1.1766426
1.1766482
1.1766494
1.1766509
1.1766469
1.1766351
1.1766151
1.1765882
1.1765548
1.1765156
1.1764723
1.1764277
1.1763851
1.1763499
1.1763273
1.176313
1.1762919
1.1762615
1.1762206
1.1761343
1.1759343
1.1755607
1.1749597
1.1750707
1.1741608
1.1721521
1.1714352
1.1707445
1.170521
1.1708743
1.171478
1.1722305
1.1730135
1.173789
1.1744549
1.1749828
1.1753902
1.1756542
1.1758516
1.1759852
1.1760706
1.1761372
1.1761738
1.1762012
1.1762203
1.1762427
1.1762694
1.176307
1.1763545
1.1764125
1.1764692
1.1765231
1.1765631
1.1765998
1.1766329
1.1766622
1.1766881
1.1767102
1.1767279
1.1767411
1.1767491
1.1767524
1.1767543
1.1767497
1.1767388
1.1767211
1.1766965
1.176665
1.1766267
1.1765823
1.1765332
1.1764834
1.1764348
1.1763879
1.1763329
1.176276
1.1762031
1.1760679
1.1757774
1.1751865
1.1750257
1.1737073
1.1719003
1.1700879
1.1686107
1.1651581
1.1660298
1.1633299
1.1633863
1.1636902
1.1646406
1.1661096
1.1678223
1.1699056
1.1718959
1.1733469
1.1743713
1.1750275
1.1754576
1.1757378
1.1759479
1.1760677
1.1761437
1.1761987
1.1762382
1.176274
1.176316
1.1763718
1.1764294
1.1764826
1.1765301
1.176574
1.1766145
1.1766526
1.1766884
1.1767211
1.1767496
1.176773
1.1767887
1.1767997
1.1768055
1.176813
1.176808
1.1767977
1.1767813
1.1767583
1.1767281
1.1766905
1.1766457
1.1765952
1.1765327
1.1764622
1.1763879
1.1763081
1.1762063
1.1760346
1.1756582
1.1749232
1.1746058
1.1732114
1.1713641
1.1695138
1.1637653
1.1630792
1.1623258
1.1612147
1.16064
1.1602447
1.160107
1.1592727
1.1596112
1.1601512
1.1613935
1.1634666
1.166565
1.1698323
1.1723361
1.1738166
1.1747402
1.1752682
1.1756322
1.1758533
1.1760063
1.1761204
1.1762019
1.1762714
1.176336
1.1763947
1.176448
1.176497
1.1765436
1.1765881
1.176632
1.1766743
1.1767134
1.1767471
1.1767751
1.1767982
1.1768145
1.1768237
1.1768395
1.1768337
1.1768233
1.176807
1.1767837
1.1767524
1.1767116
1.1766604
1.1765981
1.1765284
1.1764425
1.1763404
1.1762063
1.1759933
1.1756001
1.1748969
1.1745086
1.173167
1.1720381
1.1698914
1.1607691
1.1608269
1.1599758
1.1594247
1.1591572
1.1582739
1.1579755
1.1578785
1.1578233
1.1578282
1.1575499
1.1583106
1.1593761
1.16162
1.1651708
1.1690399
1.172062
1.1737157
1.1746751
1.1752615
1.175618
1.1758519
1.1760433
1.176149
1.1762276
1.1762896
1.1763437
1.1763977
1.1764541
1.1765113
1.1765683
1.1766237
1.1766751
1.1767202
1.1767571
1.1767858
1.1768061
1.1768179
1.1768365
1.1768302
1.1768191
1.1768021
1.1767777
1.1767443
1.1767002
1.1766426
1.1765642
1.1765531
1.1763603
1.1762074
1.1759917
1.1756234
1.1750096
1.1746054
1.1733528
1.1710374
1.1605547
1.1601959
1.1590005
1.1575551
1.1571785
1.1567631
1.1566466
1.1566195
1.1567252
1.1568228
1.1571893
1.1587755
1.1610757
1.1649263
1.1689761
1.1720184
1.1737567
1.1747736
1.1753088
1.1756075
1.1758176
1.1759815
1.1760704
1.1761476
1.1762231
1.1763011
1.1763806
1.1764584
1.1765324
1.1766005
1.1766603
1.176711
1.1767504
1.1767779
1.1767939
1.1768141
1.1768068
1.1767947
1.1767762
1.1767495
1.176712
1.1766609
1.1765918
1.1765869
1.1764861
1.1763682
1.1761972
1.1756919
1.1751928
1.1743317
1.1737506
1.1724391
1.160345
1.1596179
1.1575458
1.1563442
1.15603
1.1559105
1.1559438
1.1560972
1.1565583
1.1569209
1.1583178
1.160335
1.1644503
1.1698955
1.1730593
1.174414
1.1750121
1.1753488
1.1755757
1.1757303
1.1758573
1.175991
1.176103
1.1762117
1.1763167
1.1764144
1.1765031
1.1765806
1.1766454
1.176696
1.1767317
1.1767523
1.1767669
1.1767585
1.1767449
1.1767239
1.1766931
1.1766492
1.1765863
1.1764823
1.176492
1.1763402
1.1755982
1.1759591
1.1756514
1.1751003
1.1741704
1.1727268
1.1703341
1.1600437
1.1600452
1.1591003
1.1555313
1.1554674
1.1554737
1.1557431
1.1562128
1.1568477
1.1574327
1.1614694
1.1682317
1.1726378
1.1741458
1.1747487
1.1750721
1.175325
1.1755129
1.1756798
1.1758365
1.1760064
1.1761451
1.1762728
1.1763859
1.1764841
1.1765659
1.1766298
1.176675
1.1767009
1.1767029
1.1766935
1.176678
1.1766536
1.176616
1.1765588
1.1764674
1.1764807
1.1761999
1.1732341
1.1751544
1.1745043
1.1732582
1.1714467
1.1601187
1.1596116
1.1576605
1.1551982
1.1551841
1.1551662
1.1553652
1.156976
1.1619469
1.1687304
1.1729696
1.1739224
1.174531
1.1748487
1.1751291
1.1753569
1.1755641
1.1757508
1.1759467
1.1761064
1.17625
1.1763728
1.1764743
1.1765535
1.1766096
1.1766415
1.1766212
1.1766112
1.1765939
1.1765658
1.1765213
1.1764511
1.1764665
1.1762772
1.175521
1.1726987
1.1717332
1.170015
1.1598475
1.1592348
1.1544409
1.1548292
1.1590389
1.1673869
1.1711819
1.1734089
1.1740934
1.1745321
1.1746803
1.1749915
1.175245
1.1754951
1.1757123
1.1759277
1.1760982
1.1762472
1.1763713
1.1764681
1.1765365
1.1765753
1.1765192
1.176509
1.1764902
1.1764569
1.1763985
1.1762875
1.1762895
1.1757016
1.1673644
1.1597123
1.1594506
1.1579249
1.1586743
1.1681865
1.1708859
1.1725311
1.1735189
1.174034
1.1744394
1.1747472
1.1750312
1.1751995
1.1754616
1.1757206
1.175931
1.1761113
1.1762575
1.1763735
1.1764561
1.1765028
1.1763912
1.1763822
1.1763631
1.1763248
1.1762483
1.1762648
1.1759614
1.1747435
1.1617661
1.159622
1.1590892
1.1635764
1.1684092
1.1728866
1.1737611
1.1743258
1.174699
1.1750267
1.1752793
1.1755224
1.1757324
1.175949
1.1761345
1.1762711
1.1763688
1.1764241
1.1762273
1.1762215
1.1762027
1.176153
1.1760293
1.1760178
1.1754833
1.1599956
1.1594109
1.1583669
1.1620195
1.1647212
1.1657769
1.1734186
1.1742343
1.1747395
1.1751504
1.1755243
1.1757972
1.1759787
1.176155
1.1762725
1.1763381
1.176012
1.1760122
1.1759968
1.1759346
1.175976
1.1756051
1.1731312
1.1604159
1.1599396
1.1592012
1.1618727
1.1633575
1.1635428
1.1731912
1.1742323
1.1752407
1.1758426
1.1760179
1.1761645
1.1762429
1.1757292
1.1757363
1.175713
1.1756009
1.1756248
1.1748438
1.1603892
1.1597408
1.1587893
1.1618668
1.1622305
1.1722552
1.175289
1.1758361
1.1760365
1.1761349
1.1753034
1.175315
1.1752764
1.175397
1.174973
1.1723957
1.1604526
1.1602569
1.1594309
1.1600048
1.1611701
1.1610689
1.1726077
1.1749741
1.1756267
1.175888
1.1760114
1.174773
1.1747757
1.1746804
1.1747632
1.1742152
1.1602227
1.1606526
1.160068
1.1591388
1.1597163
1.1602151
1.1606174
1.1733994
1.1747546
1.175379
1.1757171
1.1758696
1.1741102
1.1740991
1.1739612
1.1739683
1.173396
1.1706637
1.1609615
1.1606054
1.1598191
1.1576825
1.1588315
1.1585617
1.1736245
1.1745886
1.1751547
1.1755287
1.1757088
1.1733347
1.1733243
1.1731867
1.1727403
1.1724672
1.1713864
1.1603085
1.1610959
1.1604957
1.159403
1.1567651
1.1540403
1.1524712
1.1732824
1.1742969
1.1749159
1.1753067
1.1755289
1.1724799
1.1724912
1.1723715
1.1719386
1.1716056
1.1703198
1.1614413
1.1611615
1.160488
1.1585725
1.1547887
1.1527548
1.1525422
1.1729802
1.1740083
1.1746746
1.1750915
1.1753294
1.1716342
1.1716691
1.1715721
1.1712473
1.1709164
1.1698683
1.166387
1.1609144
1.1617146
1.1612398
1.1605625
1.1595382
1.1589154
1.158369
1.1582102
1.1581646
1.1581626
1.1582038
1.1581351
1.1572733
1.1539431
1.1528236
1.1527964
1.1529745
1.1528613
1.1528329
1.152957
1.1529687
1.152755
1.152713
1.1527466
1.1527235
1.1529116
1.1532132
1.152891
1.1726449
1.1737447
1.1744393
1.1748678
1.1750923
1.170785
1.1708395
1.1708284
1.1705752
1.1700269
1.1694779
1.1673162
1.162153
1.1619188
1.1613566
1.1606902
1.1599557
1.1594195
1.1589427
1.1587726
1.1587533
1.1588299
1.1589947
1.1589613
1.1580599
1.1557256
1.1538818
1.1530776
1.1529693
1.15296
1.1533943
1.1541766
1.1543908
1.1543236
1.1543426
1.154239
1.1541954
1.1543208
1.1541751
1.1531459
1.1702916
1.1724156
1.1734988
1.1742067
1.1746334
1.1748543
1.1699726
1.1700385
1.1700779
1.1699476
1.1694892
1.169118
1.168014
1.1619558
1.1625508
1.1621398
1.161504
1.1609317
1.1603069
1.1597701
1.1594331
1.1590823
1.1575946
1.1566472
1.1562645
1.1555041
1.1564461
1.1548331
1.1551363
1.1552063
1.1551886
1.1548428
1.1533477
1.1701959
1.172161
1.1732616
1.1739695
1.1743851
1.1745931
1.1691976
1.1692721
1.1693487
1.16929
1.1689818
1.1686554
1.167654
1.1619562
1.1630686
1.1628815
1.1624532
1.161885
1.1604032
1.1600595
1.1597391
1.1594657
1.1591767
1.1589217
1.1583873
1.1578382
1.1577593
1.1575913
1.157321
1.1570131
1.1568242
1.156637
1.1565308
1.1566402
1.1572556
1.1571564
1.1560868
1.1555024
1.1559773
1.156169
1.1560521
1.1554017
1.1535823
1.1702154
1.1719296
1.1730303
1.1737192
1.1741169
1.1743087
1.1684706
1.1685498
1.1686506
1.1686493
1.1684614
1.1682515
1.1675107
1.1645336
1.1634188
1.1634325
1.1630538
1.1626816
1.1623033
1.1617184
1.1612896
1.1598041
1.1577907
1.1582941
1.1582241
1.1580218
1.1576539
1.1574892
1.1573461
1.1571092
1.1571057
1.1574413
1.1579056
1.1568327
1.1550626
1.1564486
1.1574323
1.1572828
1.1566884
1.1556798
1.1526029
1.1700092
1.1717082
1.1727907
1.1734497
1.173827
1.1740042
1.167796
1.1678755
1.1679841
1.1680332
1.1679526
1.1676448
1.1673412
1.1662398
1.1630799
1.1639044
1.1636732
1.1633182
1.1629254
1.1625541
1.1621686
1.1617653
1.1612908
1.1600696
1.1599113
1.1597098
1.1594983
1.1593003
1.1591181
1.1589497
1.1587969
1.1586632
1.1585824
1.1585313
1.1583731
1.1579295
1.1556861
1.1571246
1.1577703
1.1577236
1.1568765
1.155641
1.152229
1.1701457
1.1715901
1.172554
1.1731624
1.1735197
1.1736857
1.1671704
1.1672385
1.1673503
1.1674403
1.1674336
1.1672818
1.1668762
1.1664691
1.1656102
1.1640467
1.1642964
1.164196
1.1638364
1.16354
1.1628255
1.1603819
1.1602281
1.1600129
1.1598116
1.1596156
1.1594308
1.1592579
1.1591022
1.1589539
1.1588194
1.1586746
1.1585958
1.1577378
1.1557638
1.1572428
1.1579796
1.1581302
1.1582099
1.1578621
1.1536548
1.1699705
1.171357
1.1722818
1.1728593
1.1732015
1.1733601
1.166569
1.1666284
1.1667464
1.1668659
1.1669219
1.1668663
1.1666672
1.1662951
1.1658862
1.1652054
1.1648524
1.1645282
1.1641558
1.1637971
1.1630443
1.1598158
1.1605802
1.1604375
1.1602472
1.1600387
1.1598251
1.1596168
1.1594191
1.1592401
1.1590633
1.1589097
1.1587323
1.1586112
1.1575716
1.1553148
1.1569566
1.1578181
1.1579031
1.1584452
1.1587069
1.1589795
1.1591015
1.1586398
1.1697531
1.1711023
1.1719916
1.1725474
1.1728795
1.1730337
1.1659877
1.1660459
1.166171
1.1663139
1.16642
1.1664361
1.1663213
1.1661352
1.1657996
1.1653691
1.164984
1.1646813
1.1643538
1.1639963
1.1633601
1.1608019
1.1608123
1.1606334
1.1604277
1.1602059
1.1599773
1.1597539
1.1595374
1.1593406
1.159141
1.1589805
1.1587417
1.1585598
1.157475
1.1542763
1.1561269
1.1572466
1.1571408
1.1576657
1.1583375
1.1586692
1.1590445
1.1594501
1.1598783
1.1601534
1.1597824
1.167621
1.169587
1.1708432
1.1716989
1.1722374
1.1725616
1.1727131
1.1654312
1.1654905
1.1656231
1.165785
1.1659277
1.1660051
1.165987
1.1658569
1.1656465
1.1654093
1.1650284
1.164723
1.1643708
1.1640988
1.1634741
1.1609796
1.160957
1.1607728
1.1605603
1.1603321
1.1600961
1.1598633
1.1596344
1.1594233
1.1591994
1.1590058
1.1587033
1.1584837
1.1574095
1.1522732
1.1545807
1.1559101
1.155588
1.1542814
1.15784
1.1589614
1.1594398
1.1600398
1.160565
1.1610939
1.1613963
1.1609782
1.1676229
1.1693873
1.170595
1.1714165
1.1719376
1.1722539
1.1724027
1.1649021
1.1649622
1.1651018
1.1652794
1.1654496
1.165571
1.1656117
1.1655344
1.1653674
1.1651649
1.1646872
1.1642835
1.1640852
1.1639489
1.1635053
1.1610139
1.1610292
1.1608536
1.1606453
1.1604188
1.160181
1.1599429
1.1597029
1.1594691
1.1592127
1.1589287
1.1584189
1.1581334
1.1569918
1.153179
1.1504981
1.1525019
1.1543102
1.1537667
1.1494665
1.1587551
1.1599663
1.1605686
1.1613428
1.161947
1.1625451
1.1627839
1.1618642
1.1676878
1.1692091
1.1703798
1.1711546
1.171654
1.1719603
1.1721053
1.1643957
1.1644586
1.1646063
1.1647971
1.1649883
1.1651413
1.1652263
1.1651898
1.1650532
1.1648472
1.1643796
1.1638991
1.1635794
1.1636038
1.1631974
1.1609701
1.161033
1.1608756
1.1606769
1.1604542
1.1602178
1.1599726
1.1597139
1.1594075
1.1589525
1.1582341
1.1569694
1.1566955
1.1545046
1.1504788
1.1485264
1.1511659
1.152742
1.1518855
1.159984
1.1611799
1.1619866
1.1630219
1.1638964
1.1669981
1.1691356
1.1702015
1.1709163
1.1713889
1.1716821
1.1718216
1.1639091
1.1639772
1.1641352
1.1643378
1.1645444
1.1647194
1.1648065
1.1648331
1.1647357
1.1644215
1.1641163
1.1636175
1.1632572
1.1632115
1.1628448
1.1609142
1.1610254
1.1608802
1.1606692
1.1604422
1.1601904
1.159906
1.159495
1.1585698
1.1569273
1.1543487
1.1510328
1.1493374
1.1487248
1.1484752
1.1481448
1.1506542
1.1511365
1.1615606
1.1629086
1.1663489
1.1690591
1.1700364
1.1706988
1.1711415
1.1714189
1.1715511
1.1634489
1.1635203
1.1636883
1.1639013
1.1641181
1.1643067
1.1644413
1.1644659
1.1644014
1.1641494
1.1638673
1.1632525
1.1628701
1.1628767
1.1627971
1.1623952
1.1620539
1.1617173
1.1614217
1.161185
1.1609809
1.1606575
1.160314
1.1599247
1.1591992
1.1575109
1.1550653
1.153238
1.1509669
1.1483034
1.1457572
1.1459428
1.1480284
1.1482122
1.1490039
1.150793
1.1499572
1.1627426
1.166736
1.1690215
1.1699023
1.1705019
1.1709101
1.1711686
1.1712918
1.1630163
1.1630901
1.1632661
1.1634867
1.1637083
1.1639033
1.1640493
1.1640892
1.1640526
1.1638424
1.1635841
1.1630156
1.1625899
1.1625305
1.1626005
1.1623496
1.1621741
1.1619304
1.1616533
1.1613735
1.1610704
1.160351
1.1593054
1.158355
1.1575318
1.1567211
1.1552839
1.1538031
1.1511983
1.1483987
1.147467
1.1474107
1.1488164
1.1485115
1.1491814
1.1501606
1.1654132
1.1679138
1.1691176
1.1697905
1.1703203
1.1706913
1.1709289
1.1710419
1.1626094
1.1626878
1.1628689
1.1630929
1.1633139
1.1635086
1.1636319
1.1637056
1.1636905
1.1635047
1.1632474
1.1627754
1.1623488
1.162021
1.1620528
1.1619114
1.1619375
1.1618048
1.1616252
1.1614012
1.1611862
1.1600901
1.1591418
1.1583519
1.1580507
1.1575004
1.1569036
1.1554942
1.1528015
1.1505616
1.1497553
1.1501911
1.1512712
1.1504565
1.1504899
1.1497877
1.1652868
1.1665771
1.168158
1.169139
1.1696748
1.1701465
1.1704809
1.1706969
1.1707994
1.1622266
1.1623103
1.162495
1.1627189
1.1629341
1.1631232
1.1632438
1.1633202
1.1633197
1.163174
1.1628192
1.1625177
1.1619929
1.1616783
1.161629
1.1615248
1.1614191
1.1614783
1.1613985
1.1612171
1.1610174
1.1597617
1.1592417
1.1590013
1.1591285
1.1582883
1.1571102
1.155659
1.1543422
1.1527585
1.1511657
1.1518904
1.1520062
1.1524055
1.1519953
1.1643399
1.166187
1.1674394
1.1682964
1.1691216
1.1695504
1.1699755
1.1702757
1.1704705
1.1705624
1.161866
1.1619544
1.1621382
1.1623491
1.1625544
1.1627419
1.1628596
1.1629363
1.1629461
1.1628337
1.1625359
1.1622335
1.161822
1.1612418
1.1608375
1.1605272
1.1603438
1.1604202
1.1605756
1.1606393
1.1606254
1.1603674
1.1600094
1.1595482
1.158719
1.1574684
1.1558284
1.1545563
1.1536466
1.1526089
1.1511432
1.151982
1.1527776
1.1530677
1.1508504
1.165848
1.1668355
1.1675973
1.1683405
1.1690212
1.1694187
1.1698043
1.1700733
1.1702483
1.1703301
1.1615241
1.1616148
1.1617911
1.1619788
1.1621742
1.1623577
1.1624787
1.1625554
1.1625719
1.1624849
1.1622213
1.1618734
1.1609498
1.1596691
1.1591089
1.1585182
1.1581742
1.1580935
1.1581068
1.157736
1.1573214
1.1568224
1.156101
1.1551752
1.154101
1.152806
1.1515097
1.1518436
1.1514509
1.1504355
1.1501009
1.15225
1.1529391
1.1534894
1.1539624
1.1643162
1.1659934
1.1669424
1.1676666
1.1684151
1.1688838
1.1692795
1.1696299
1.1698737
1.1700312
1.1701062
1.1612003
1.1612873
1.1614464
1.1616142
1.1617981
1.1619461
1.162094
1.1621747
1.1621959
1.162133
1.1619032
1.161461
1.1600281
1.1523166
1.1526858
1.1531454
1.15385
1.1545765
1.1548912
1.1538099
1.1653338
1.1662945
1.1670325
1.1678016
1.1683827
1.1687513
1.1691332
1.1694536
1.1696762
1.1698218
1.1698913
1.1608919
1.160969
1.161104
1.1612527
1.1614233
1.1615904
1.1617047
1.1617923
1.1618168
1.1617735
1.1615785
1.1613045
1.1600407
1.1517569
1.1527011
1.1522811
1.1511845
1.1548455
1.1551647
1.1552247
1.1551276
1.1639342
1.1655287
1.1663781
1.1671664
1.167797
1.1682768
1.1686197
1.1689818
1.169276
1.1694839
1.1696195
1.169685
1.1605854
1.1606527
1.1607622
1.1608936
1.1610509
1.1612084
1.1613183
1.1614093
1.1614349
1.1614037
1.161231
1.161005
1.1602218
1.1563118
1.1522582
1.1525947
1.1523407
1.1553644
1.1555619
1.1554229
1.1553194
1.1549478
1.164662
1.1656599
1.1664473
1.167169
1.167778
1.1681364
1.1684877
1.1688284
1.1691024
1.1692971
1.1694246
1.1694871
1.1602781
1.1603341
1.1604233
1.1605374
1.1606817
1.1608011
1.1609323
1.1610254
1.1610513
1.1610256
1.1608722
1.1604437
1.1599479
1.1579177
1.1520367
1.1522299
1.1523549
1.1505321
1.155676
1.1555897
1.1554863
1.1553647
1.1542582
1.1629803
1.1647906
1.1657357
1.1665126
1.1672278
1.1676772
1.1680049
1.1683569
1.1686764
1.1689332
1.169116
1.169237
1.1692971
1.1599692
1.1600141
1.1600863
1.1601859
1.1603185
1.1604272
1.1605521
1.1606434
1.1606663
1.1606396
1.160492
1.1601024
1.1595858
1.1586664
1.1524976
1.1528322
1.1524879
1.1522477
1.1557809
1.1556461
1.1556915
1.1558998
1.1549138
1.1604479
1.1635985
1.1649451
1.1658654
1.1666439
1.1672115
1.167536
1.1678832
1.168226
1.1685267
1.1687686
1.1689405
1.1690558
1.1691141
1.1596592
1.1596939
1.1597526
1.1598403
1.1599612
1.1600596
1.1601754
1.1602612
1.1602791
1.1602431
1.1600878
1.1597026
1.1591996
1.1580621
1.1530139
1.1531275
1.1527941
1.1513076
1.1555362
1.1560366
1.1566021
1.1595345
1.1584854
1.1622801
1.1640974
1.16513
1.1658971
1.166655
1.1671086
1.1674127
1.1677661
1.1680953
1.1683795
1.1686087
1.1687701
1.16888
1.1689366
1.1593485
1.1593741
1.1594229
1.1594716
1.1595804
1.1596928
1.1598003
1.1598772
1.1598854
1.1598334
1.1596584
1.1592464
1.1587377
1.1576683
1.1543094
1.1505882
1.1534184
1.15352
1.153182
1.1565706
1.1600433
1.1613519
1.1632517
1.1643543
1.1652336
1.1659945
1.1666526
1.1669676
1.1673032
1.1676497
1.1679649
1.1682347
1.1684513
1.1686035
1.1687084
1.1687633
1.1590385
1.1590559
1.1590974
1.1591663
1.1592358
1.159338
1.1594342
1.1594921
1.1594852
1.1594079
1.159206
1.1587874
1.1579371
1.1572291
1.1555128
1.152411
1.15195
1.1537692
1.1537938
1.1616677
1.1635842
1.1644884
1.1652826
1.1659947
1.1665639
1.1668497
1.1671972
1.1675325
1.1678344
1.1680914
1.1682957
1.1684399
1.16854
1.1685931
1.1587281
1.1587379
1.1587741
1.1588331
1.1588896
1.1589769
1.1590556
1.1590991
1.1590734
1.1589647
1.1587272
1.1582834
1.1574772
1.1562769
1.1555469
1.1536966
1.1516236
1.1496331
1.1528293
1.1541276
1.1532383
1.159157
1.1622659
1.1637327
1.1645731
1.1653158
1.166079
1.1664303
1.1667458
1.1670898
1.1674135
1.1677033
1.1679487
1.168141
1.1682781
1.1683736
1.1684252
1.1584203
1.1584223
1.158453
1.1584758
1.1585512
1.158628
1.1586921
1.1587037
1.1586459
1.1584988
1.1582163
1.1577643
1.1569305
1.1556823
1.1537815
1.1510882
1.1497199
1.1474824
1.1459623
1.1491859
1.1502364
1.1533638
1.1534239
1.1603159
1.1627999
1.1638549
1.1646304
1.1654525
1.1660167
1.1663115
1.1666449
1.1669799
1.1672927
1.1675716
1.1678067
1.1679866
1.1681171
1.1682085
1.1682586
1.158109
1.158104
1.1581035
1.1581447
1.1582044
1.1582661
1.1583112
1.1582923
1.1582014
1.1580107
1.1576768
1.1571676
1.1562785
1.1549348
1.1529227
1.15033
1.1481404
1.1473481
1.147079
1.1466476
1.1501787
1.1513764
1.1523381
1.148992
1.1576737
1.1609341
1.1629957
1.163946
1.1646876
1.1655094
1.1659018
1.1662024
1.1665416
1.1668667
1.1671696
1.1674383
1.1676626
1.167832
1.1679564
1.168044
1.1680931
1.1577975
1.1577865
1.1577829
1.1578162
1.1578672
1.1579174
1.1579286
1.1578708
1.1577404
1.1574978
1.1570997
1.1565101
1.1555272
1.154061
1.1520097
1.149677
1.1480354
1.1474211
1.147325
1.147422
1.1476114
1.1470187
1.1499865
1.1506459
1.1510606
1.1501275
1.1556062
1.1588201
1.1619004
1.163173
1.1639892
1.1647454
1.1654793
1.1657695
1.166095
1.1664337
1.1667495
1.1670434
1.167303
1.1675162
1.1676766
1.1677955
1.16788
1.1679282
1.1574843
1.1574686
1.1574878
1.1575112
1.1575209
1.157553
1.1575292
1.1574372
1.1572592
1.1569563
1.1565094
1.1557894
1.1546831
1.1530927
1.1510741
1.1490491
1.1478437
1.1474221
1.1473763
1.1475259
1.1477799
1.1482171
1.1487717
1.1496134
1.1497375
1.1495837
1.1484269
1.1481608
1.1561662
1.1606259
1.1622555
1.1632821
1.1640551
1.164897
1.1653578
1.1656478
1.1659871
1.1663197
1.1666274
1.1669131
1.1671645
1.1673663
1.1675195
1.1676339
1.1677155
1.167763
1.1571664
1.1571188
1.1571599
1.1571491
1.1571793
1.157183
1.1571212
1.1569886
1.1567571
1.156415
1.1558495
1.1550058
1.1537614
1.1520839
1.1501731
1.1484904
1.1476162
1.1473241
1.1473004
1.1474584
1.1477098
1.1480503
1.1484864
1.1489053
1.1490927
1.1490722
1.1490082
1.1490672
1.1490195
1.1537472
1.157442
1.1610932
1.1624559
1.1633275
1.1641479
1.1648373
1.1651999
1.1655244
1.1658686
1.1661981
1.1664992
1.1667775
1.1670203
1.1672123
1.1673597
1.1674702
1.1675494
1.1675964
1.1568384
1.1568185
1.1567993
1.1568115
1.1568264
1.1567992
1.1567026
1.1565243
1.1562364
1.1558165
1.1551463
1.1541702
1.1528059
1.15111
1.1493643
1.1480297
1.1473551
1.1471632
1.1471456
1.1472776
1.1474907
1.1477691
1.1480862
1.1484095
1.1486623
1.1488341
1.1489973
1.1491766
1.1492736
1.1493105
1.149158
1.1540993
1.1596058
1.1614255
1.1625557
1.1633991
1.1642879
1.1647262
1.1650524
1.165404
1.1657493
1.1660697
1.1663639
1.1666345
1.1668673
1.1670522
1.1671955
1.1673031
1.1673803
1.1674273
1.1565006
1.156482
1.1564606
1.1564652
1.1564613
1.1564047
1.1562707
1.1560445
1.1557209
1.1551904
1.1544097
1.153313
1.1518763
1.1502396
1.1487008
1.1476499
1.1471314
1.14698
1.1469611
1.1470645
1.1472375
1.147463
1.1477241
1.1479958
1.1482545
1.1485004
1.1487499
1.149009
1.1492484
1.1493913
1.149543
1.1496239
1.1492548
1.1518926
1.1560209
1.1601217
1.1616379
1.1626601
1.1634845
1.1642584
1.1645839
1.1649014
1.1652678
1.1656078
1.165928
1.1662184
1.1664843
1.1667085
1.166887
1.1670264
1.1671314
1.167207
1.1672542
1.1561229
1.1561076
1.1561093
1.1561065
1.1560844
1.1559972
1.1558255
1.1555517
1.1551335
1.1545444
1.1536626
1.1524783
1.1510279
1.1495083
1.1481839
1.1473391
1.1469203
1.146789
1.146771
1.1468512
1.1469928
1.1471792
1.1473992
1.1476417
1.1478977
1.1481659
1.1484504
1.1487531
1.1490659
1.1493747
1.1496756
1.1498171
1.1499311
1.1498405
1.1525278
1.1584823
1.1605288
1.1618017
1.1627958
1.1636683
1.1641238
1.1644342
1.1647507
1.165132
1.1654737
1.1657823
1.1660662
1.166322
1.1665363
1.1667118
1.1668496
1.1669531
1.1670275
1.1670753
1.1557582
1.1557453
1.1557468
1.1557357
1.1556919
1.1555752
1.1553671
1.1550453
1.1545915
1.1538946
1.1529347
1.1517054
1.1502918
1.1489076
1.1477727
1.1470501
1.1467272
1.1466079
1.1465875
1.1466493
1.146767
1.1469268
1.1471213
1.1473449
1.1475931
1.1478646
1.1481608
1.1484827
1.1488287
1.1491939
1.1495702
1.1499283
1.1502415
1.150331
1.1503874
1.1502994
1.150447
1.1542972
1.1590678
1.1608263
1.1619551
1.1630368
1.1636205
1.1639479
1.1642624
1.164594
1.1649682
1.1652987
1.165612
1.1658937
1.1661489
1.1663618
1.1665325
1.1666669
1.1667678
1.1668404
1.1668888
1.155375
1.1553635
1.155362
1.1553454
1.1552826
1.1551397
1.1548972
1.1545571
1.1540175
1.1532587
1.1522511
1.1510165
1.1496731
1.1484197
1.1474457
1.1468319
1.146551
1.1464385
1.1464153
1.1464632
1.1465641
1.1467066
1.1468852
1.1470964
1.1473374
1.1476071
1.1479057
1.1482345
1.1485944
1.1489848
1.1494016
1.1498317
1.150243
1.1506191
1.1508834
1.1507635
1.1497982
1.1495637
1.1512868
1.1570209
1.1596494
1.1610549
1.1621425
1.1630866
1.1634821
1.1637641
1.1640938
1.1644263
1.1648143
1.1651473
1.165444
1.1657231
1.1659609
1.1661624
1.1663351
1.1664709
1.1665709
1.1666423
1.1666917
1.1549697
1.1549584
1.1549544
1.1549293
1.1548493
1.1546837
1.1544129
1.1540035
1.1534477
1.1526492
1.1516234
1.150415
1.1491599
1.1480323
1.1471821
1.1466449
1.1463892
1.146282
1.1462563
1.1462937
1.1463834
1.1465151
1.1466847
1.1468894
1.1471267
1.1473951
1.1476944
1.1480256
1.1483908
1.1487918
1.1492283
1.1496944
1.1501763
1.1506263
1.1509262
1.1505955
1.1495383
1.1498551
1.154592
1.1578796
1.1598889
1.1612072
1.162383
1.1629473
1.1632809
1.1635812
1.1638917
1.1642489
1.1646
1.1649303
1.1652418
1.16551
1.1657604
1.1659748
1.1661409
1.1662704
1.1663647
1.1664323
1.1664812
1.1545358
1.1545217
1.1545151
1.1544802
1.1543848
1.1542005
1.1539061
1.1534682
1.1528845
1.1520684
1.1510495
1.1498903
1.148731
1.1477123
1.1469649
1.1464831
1.1462441
1.1461387
1.1461104
1.1461399
1.1462225
1.1463487
1.1465149
1.1467182
1.1469562
1.1472266
1.1475286
1.1478623
1.1482305
1.1486359
1.1490808
1.149565
1.1500816
1.1505918
1.1509152
1.1507186
1.1504999
1.1523383
1.1555544
1.1582678
1.1600754
1.1615753
1.1622973
1.1627228
1.1630738
1.1633798
1.1637264
1.1640278
1.1644544
1.164757
1.1650343
1.1653238
1.1655468
1.1657332
1.1659082
1.1660424
1.1661362
1.166203
1.1662481
1.1540685
1.1540513
1.1540371
1.153991
1.153882
1.1536831
1.1533729
1.1529186
1.1523235
1.1515095
1.1505182
1.1494256
1.1483663
1.1474464
1.1467529
1.1463431
1.1461135
1.1460074
1.1459761
1.1459999
1.1460786
1.1462034
1.1463724
1.1465787
1.1468507
1.147127
1.1474354
1.1477462
1.148117
1.1485261
1.1489748
1.1494663
1.1500003
1.150541
1.1509205
1.1509408
1.1513254
1.1532967
1.1561982
1.1585804
1.1603466
1.1615974
1.1620692
1.1624878
1.1628681
1.1631984
1.163457
1.1640338
1.1641384
1.1644725
1.1648148
1.1650774
1.1653091
1.1655444
1.1657033
1.1658206
1.1659004
1.165982
1.1659938
1.1535598
1.153539
1.1535146
1.153456
1.1533343
1.1531271
1.1528348
1.1523768
1.151756
1.1509609
1.150016
1.1490054
1.1480501
1.1472232
1.1465997
1.1462219
1.1459968
1.1458873
1.1458523
1.1458713
1.1459481
1.1460763
1.1462767
1.1464888
1.1467397
1.1470257
1.1473441
1.1476941
1.1480764
1.1484936
1.1489153
1.149409
1.14995
1.1505213
1.1510069
1.1512404
1.1519689
1.1539734
1.1566401
1.1589302
1.1606096
1.1614146
1.1617856
1.1622608
1.1626029
1.1629257
1.1635227
1.163981
1.1640034
1.1644788
1.1645826
1.1648638
1.1650722
1.1652285
1.1654101
1.1655379
1.1656185
1.1656667
1.1657269
1.1530139
1.1529855
1.1529486
1.1528763
1.152745
1.1525288
1.1522351
1.1517813
1.1511761
1.1504153
1.1495345
1.1486197
1.1477712
1.147003
1.1464706
1.146118
1.1458947
1.1457787
1.1457388
1.1457532
1.1458287
1.1459597
1.1461657
1.1463874
1.1466499
1.1469488
1.1472807
1.1476441
1.1480392
1.1484666
1.1489299
1.1494002
1.1499457
1.1505287
1.1510538
1.1515304
1.1524821
1.1544231
1.1568817
1.1591169
1.1604725
1.1610992
1.1615815
1.1620621
1.1626039
1.1629737
1.1634875
1.163841
1.1638767
1.1644094
1.1642379
1.1645325
1.1648099
1.165106
1.1652399
1.1653311
1.1653799
1.1654014
1.1654162
1.1524383
1.1524013
1.1523506
1.1522642
1.1521199
1.151927
1.1515786
1.1511663
1.1505878
1.1498761
1.149075
1.1482647
1.1475184
1.1468702
1.1463636
1.1460318
1.1458093
1.1456843
1.1456375
1.1456464
1.1457202
1.145854
1.146067
1.1462995
1.1465754
1.1468892
1.1472369
1.1476163
1.1480268
1.1484691
1.1489438
1.1494558
1.1499776
1.1505709
1.1511607
1.1517941
1.1528913
1.1547636
1.1571443
1.1593261
1.1602802
1.1607242
1.16124
1.1617594
1.1625631
1.1629362
1.1633746
1.163626
1.163772
1.1643015
1.1642383
1.164369
1.1645743
1.1647084
1.1648319
1.1649398
1.1649957
1.1650135
1.1650283
1.1518868
1.1518418
1.1517785
1.1516794
1.151526
1.1512729
1.1509875
1.1505637
1.1500186
1.149365
1.1486508
1.1479456
1.1472984
1.1467062
1.1462777
1.1459645
1.1457436
1.1456084
1.1455527
1.1455542
1.1456239
1.1457591
1.1459791
1.1462225
1.1465122
1.1468415
1.1472056
1.1476019
1.1480299
1.14849
1.1489824
1.1495102
1.1500493
1.150659
1.151295
1.1520324
1.1531946
1.1549635
1.1572577
1.1592047
1.159954
1.1606543
1.1612364
1.1617917
1.1624059
1.1627217
1.1630671
1.1633422
1.163521
1.1639344
1.1640119
1.1639561
1.164196
1.1645902
1.1646905
1.1647391
1.1647391
1.1647067
1.1646896
1.151293
1.1512389
1.1511627
1.1510509
1.1508882
1.1506608
1.1503831
1.1499802
1.1494773
1.1488935
1.148274
1.1476431
1.1471182
1.1466013
1.1462149
1.1459193
1.1457008
1.1455556
1.1454882
1.1454798
1.1455426
1.1456765
1.1459019
1.1461548
1.1464576
1.1468017
1.1471814
1.1475944
1.1480398
1.1485177
1.1490282
1.1495735
1.1501325
1.150761
1.1514305
1.1522103
1.1534239
1.1551714
1.1571939
1.1589352
1.1599004
1.1603973
1.160997
1.1615563
1.162151
1.1625213
1.1630205
1.1631431
1.1633226
1.163784
1.1636858
1.1639161
1.16391
1.1641271
1.1642074
1.1642118
1.1641642
1.1641239
1.164125
1.1509198
1.1508606
1.1507752
1.1506541
1.1504858
1.1502883
1.1499901
1.1496081
1.1491417
1.1486091
1.1480481
1.147473
1.1469721
1.1465388
1.1461837
1.1459016
1.1456852
1.1455323