/*--------------------------------*- C++ -*----------------------------------*\
  =========                 |
  \\      /  F ield         | OpenFOAM: The Open Source CFD Toolbox
   \\    /   O peration     | Website:  https://openfoam.org
    \\  /    A nd           | Version:  8
     \\/     M anipulation  |
\*---------------------------------------------------------------------------*/
FoamFile
{
    version     2.0;
    format      ascii;
    class       volScalarField;
    location    "7200/air";
    object      T;
}
// * * * * * * * * * * * * * * * * * * * * * * * * * * * * * * * * * * * * * //

dimensions      [0 0 0 1 0 0 0];

internalField   nonuniform List<scalar> 
167754
(
300.33632
300.35065
300.3521
300.35383
300.35539
300.35604
300.35598
300.35525
300.35404
300.35282
300.35166
300.35059
300.34708
300.34709
300.34687
300.34613
300.34585
300.34818
300.34465
300.34405
300.34445
300.34447
300.34234
300.34032
300.33988
300.33918
300.3403
300.34002
300.34505
300.34597
300.34662
300.34746
300.34807
300.34855
300.34806
300.34944
300.34924
300.34867
300.34845
300.3503
300.34918
300.34951
300.34947
300.34974
300.35076
300.35219
300.35402
300.35397
300.35182
300.34903
300.34515
300.34103
300.33733
300.334
300.33119
300.32896
300.32745
300.3268
300.32715
300.31381
300.31222
300.31415
300.31629
300.31972
300.32431
300.32916
300.33374
300.33767
300.34061
300.34261
300.34373
300.34659
300.34702
300.34489
300.34096
300.33916
300.34023
300.34602
300.3526
300.36397
300.37913
300.39361
300.41017
300.41952
300.42928
300.42661
300.42002
300.39987
300.3932
300.37796
300.36723
300.36027
300.35405
300.35028
300.34779
300.34697
300.34656
300.34629
300.3466
300.34766
300.34711
300.3467
300.34576
300.34362
300.34032
300.33439
300.32663
300.31843
300.30834
300.29898
300.2909
300.284
300.27813
300.27334
300.26968
300.26721
300.26607
300.26624
300.26183
300.2624
300.26594
300.27216
300.27997
300.28907
300.29914
300.30928
300.31875
300.32671
300.33255
300.33538
300.33459
300.33135
300.32931
300.33233
300.33831
300.34936
300.37338
300.42401
300.49669
300.56427
300.63323
300.68338
300.71413
300.72086
300.6851
300.63133
300.56535
300.50632
300.47364
300.43707
300.40839
300.38596
300.36348
300.35403
300.35003
300.34711
300.34542
300.34372
300.34177
300.34054
300.33968
300.33835
300.33463
300.32567
300.31181
300.29609
300.28084
300.26806
300.25732
300.2482
300.24046
300.23391
300.22851
300.2243
300.22135
300.21976
300.21944
300.219
300.22012
300.22347
300.22908
300.23666
300.24606
300.2571
300.26929
300.28185
300.29384
300.30375
300.31012
300.31414
300.32008
300.32863
300.34015
300.36445
300.42075
300.52593
300.69513
300.66387
300.92006
301.48557
301.6874
301.88183
301.94476
301.8453
301.67535
301.4635
301.24306
301.02471
300.83725
300.68864
300.57392
300.49962
300.44402
300.40641
300.38238
300.36363
300.35332
300.34561
300.34023
300.33393
300.3264
300.31581
300.30246
300.28612
300.27016
300.25499
300.24373
300.23339
300.22407
300.21582
300.20852
300.2023
300.19731
300.19362
300.19136
300.19042
300.1899
300.19119
300.19425
300.19924
300.20617
300.21504
300.22582
300.23831
300.25213
300.26616
300.27983
300.29304
300.30853
300.32455
300.34508
300.38315
300.46492
300.63127
300.67654
301.04772
301.55644
302.06669
302.48256
303.45459
303.20918
303.96929
303.95341
303.86785
303.60029
303.18673
302.70452
302.118
301.5577
301.14917
300.86077
300.67605
300.55495
300.47608
300.41692
300.38318
300.36178
300.34631
300.3352
300.32511
300.31329
300.29757
300.28135
300.26639
300.253
300.24064
300.22925
300.21853
300.20844
300.19924
300.19122
300.18462
300.18021
300.1771
300.17548
300.17337
300.17478
300.17768
300.18229
300.18877
300.19726
300.20784
300.22046
300.23468
300.25229
300.27213
300.29304
300.3155
300.34418
300.3925
300.49849
300.70539
300.79477
301.18732
301.70742
302.22833
303.84671
304.03987
304.25198
304.56478
304.72658
304.83788
304.87662
305.11152
305.01623
304.86418
304.51444
303.93079
303.05851
302.13864
301.43376
301.01694
300.75692
300.60826
300.50579
300.44355
300.40049
300.36837
300.34542
300.32583
300.30766
300.29113
300.27611
300.26234
300.24922
300.23668
300.22433
300.21243
300.20141
300.19192
300.18403
300.17753
300.17295
300.17036
300.16591
300.16753
300.17048
300.17507
300.18161
300.19044
300.20191
300.21633
300.23387
300.25349
300.27768
300.30642
300.34419
300.40413
300.51484
300.71282
300.82213
301.19983
301.51764
302.12203
304.69024
304.67397
304.91358
305.06872
305.14404
305.3927
305.47672
305.50404
305.51956
305.51818
305.59653
305.38238
305.0824
304.45068
303.45102
302.36174
301.51091
301.04535
300.77526
300.61016
300.50981
300.44394
300.39006
300.36031
300.33818
300.32072
300.30548
300.29027
300.27441
300.2583
300.24224
300.22666
300.21218
300.1995
300.1891
300.18103
300.17531
300.17199
300.16676
300.16853
300.17166
300.17645
300.18331
300.1927
300.20512
300.22134
300.24341
300.24655
300.30082
300.34387
300.4046
300.50827
300.68109
300.79487
301.14752
301.79939
304.7506
304.85159
305.18816
305.59507
305.7011
305.81804
305.85085
305.85847
305.82873
305.80124
305.69807
305.25149
304.60391
303.51986
302.37971
301.52321
301.03381
300.74752
300.59684
300.51276
300.45361
300.40747
300.38243
300.3607
300.33943
300.3175
300.29511
300.2732
300.25235
300.23319
300.21637
300.20208
300.191
300.18324
300.17875
300.17307
300.17512
300.17853
300.18372
300.19126
300.20181
300.21617
300.23565
300.23702
300.2654
300.29859
300.34673
300.48899
300.62949
300.87194
301.03552
301.40477
304.80963
305.01432
305.59769
305.93598
306.02445
306.05808
306.04872
306.00551
305.87569
305.77362
305.38034
304.81244
303.65386
302.12087
301.23016
300.84875
300.68038
300.58559
300.52171
300.47818
300.44244
300.40477
300.37326
300.34266
300.31309
300.28559
300.2606
300.23878
300.22056
300.20631
300.19626
300.19046
300.18636
300.1887
300.19254
300.19844
300.20712
300.21949
300.2372
300.26648
300.26373
300.30648
300.51538
300.41378
300.50041
300.65555
300.91733
301.32376
301.99737
304.89444
304.89404
305.16005
306.16483
306.18284
306.18106
306.1052
305.97298
305.79423
305.62953
304.49308
302.58928
301.34882
300.92427
300.75454
300.66347
300.59227
300.53939
300.4924
300.44828
300.40045
300.36139
300.32544
300.29361
300.26596
300.24293
300.22494
300.21221
300.20492
300.20438
300.207
300.21137
300.21825
300.22882
300.24492
300.27065
300.26692
300.34597
301.18095
300.64031
300.82334
301.17416
301.68414
304.87335
305.0161
305.56541
306.25861
306.26258
306.26761
306.2116
305.75811
304.35865
302.44888
301.2554
300.98716
300.81583
300.72637
300.64745
300.58331
300.52497
300.47242
300.41726
300.37229
300.33187
300.2973
300.26873
300.24643
300.23064
300.22164
300.22735
300.23019
300.23506
300.24297
300.25548
300.27524
300.27091
300.32422
300.5371
301.33168
301.6035
302.08722
304.94969
305.12218
306.47182
306.36249
305.17735
302.82711
301.75869
301.13174
300.93902
300.81553
300.77378
300.68618
300.61481
300.54441
300.48325
300.42261
300.37459
300.33265
300.29773
300.27048
300.2512
300.24027
300.25608
300.25894
300.26425
300.27363
300.29007
300.3213
300.32075
300.48627
302.83343
304.98776
305.06144
305.49095
305.27999
302.60199
301.84202
301.37885
301.10076
300.95573
300.84162
300.75494
300.67501
300.62762
300.55384
300.4809
300.42167
300.37093
300.32975
300.2971
300.27383
300.26068
300.29213
300.29464
300.30002
300.3108
300.33235
300.3277
300.41311
300.75598
304.40954
305.01319
305.16318
303.89989
302.5393
301.27878
301.03258
300.87359
300.76854
300.67628
300.60516
300.53671
300.47759
300.41661
300.36438
300.32593
300.29841
300.28286
300.33827
300.33991
300.34519
300.35917
300.39401
300.39725
300.54772
304.90799
305.07261
305.36652
304.3382
303.57758
303.28039
301.12899
300.89934
300.75713
300.64145
300.53617
300.45935
300.40825
300.35862
300.32554
300.30708
300.39889
300.3988
300.40315
300.42065
300.40902
300.51343
301.20991
304.78966
304.92375
305.13164
304.37953
303.96153
303.90935
301.19302
300.89992
300.61602
300.44658
300.39721
300.35593
300.33386
300.4785
300.47648
300.48306
300.5146
300.50788
300.72776
304.79718
304.97974
305.2476
304.38118
304.2788
301.45654
300.60242
300.44839
300.39196
300.36428
300.59837
300.59511
300.60598
300.57203
300.69139
301.41697
304.77934
304.83444
305.06697
304.90539
304.57733
304.60582
301.35729
300.69107
300.50736
300.43378
300.39904
300.74768
300.74694
300.77376
300.75044
300.90473
304.84406
304.72304
304.88762
305.1492
304.98663
304.84621
304.73294
301.1344
300.75286
300.57709
300.48189
300.43897
300.93429
300.93742
300.97625
300.97425
301.13537
301.90459
304.63605
304.73632
304.95769
305.5592
305.23572
305.31169
301.07103
300.79959
300.64024
300.53494
300.48424
301.15263
301.15555
301.19429
301.31996
301.39683
301.70114
304.81989
304.59823
304.76719
305.07484
305.81749
306.58459
307.02634
301.16734
300.88173
300.70745
300.59742
300.53488
301.39328
301.39008
301.42378
301.54568
301.63941
302.0014
304.50099
304.57977
304.76936
305.30863
306.3739
306.9465
307.00637
301.25242
300.96299
300.77539
300.65801
300.59104
301.63135
301.62155
301.64883
301.74029
301.83346
302.12851
303.10861
304.64933
304.42405
304.55772
304.74839
305.03678
305.21209
305.36594
305.41064
305.42347
305.42404
305.41243
305.43177
305.6744
306.61196
306.92714
306.93481
306.88467
306.91652
306.92451
306.88957
306.88628
306.94645
306.95829
306.94882
306.95533
306.90237
306.81745
306.90817
301.34681
301.03718
300.84163
300.72099
300.6578
301.87044
301.85511
301.85822
301.9295
302.08387
302.23843
302.84703
304.30061
304.36656
304.52483
304.71243
304.91922
305.0702
305.20441
305.2523
305.25774
305.23619
305.18977
305.19918
305.45294
306.11014
306.62924
306.85562
306.88613
306.88875
306.76646
306.54622
306.48591
306.50483
306.4995
306.52866
306.54093
306.50564
306.54666
306.83641
302.00936
301.41139
301.10643
300.90711
300.78698
300.72479
302.09916
302.0806
302.06951
302.1062
302.23524
302.33976
302.65056
304.35614
304.18864
304.30434
304.48334
304.64446
304.82035
304.97149
305.06637
305.16511
305.58394
305.85068
305.95841
306.17249
305.9073
306.3614
306.27604
306.25633
306.2613
306.35866
306.7796
302.03629
301.48305
301.1732
300.97391
300.85689
300.79833
302.31735
302.29636
302.2748
302.29134
302.3781
302.47
302.7519
304.35603
304.04286
304.09552
304.2161
304.37606
304.79326
304.89
304.98021
305.05717
305.13855
305.21034
305.36079
305.51536
305.53758
305.58487
305.66097
305.74766
305.80086
305.85356
305.88343
305.85266
305.67941
305.70732
306.00846
306.17297
306.03926
305.98532
306.01823
306.20131
306.71353
302.03079
301.54821
301.23832
301.04438
300.93241
300.8784
302.52203
302.49971
302.47134
302.47171
302.52461
302.58369
302.79225
303.63041
303.94425
303.94039
304.04701
304.15181
304.25831
304.42298
304.5437
304.9619
305.52875
305.38702
305.40673
305.46367
305.56726
305.61362
305.65391
305.72059
305.7216
305.62711
305.49639
305.79845
306.29679
305.90659
305.62965
305.67174
305.83907
306.12302
306.98929
302.08886
301.61052
301.30578
301.12025
301.01401
300.96414
302.71194
302.68955
302.65897
302.64517
302.66784
302.7545
302.83996
303.15006
304.03966
303.80755
303.87263
303.97257
304.08316
304.18769
304.29624
304.40977
304.54335
304.88717
304.93173
304.98846
305.04799
305.10376
305.15505
305.20246
305.24546
305.2831
305.30585
305.32024
305.36479
305.48967
306.12126
305.71629
305.53449
305.54763
305.78612
306.13395
307.09454
302.05042
301.64377
301.37242
301.20111
301.10053
301.05381
302.88808
302.86889
302.83742
302.81207
302.81396
302.85671
302.97089
303.08551
303.3273
303.76748
303.69718
303.72546
303.82668
303.91015
304.1113
304.79925
304.84254
304.90313
304.95979
305.01497
305.067
305.11567
305.15952
305.20127
305.23913
305.27991
305.30208
305.54362
306.09939
305.68301
305.47557
305.43317
305.41072
305.50863
306.69313
302.09973
301.70939
301.44904
301.28647
301.19011
301.14546
303.05738
303.04065
303.00743
302.97378
302.95803
302.97369
303.02972
303.13449
303.2496
303.44127
303.54066
303.63191
303.73678
303.83777
304.04969
304.95861
304.74341
304.78359
304.83717
304.89587
304.956
305.01463
305.07031
305.1207
305.17046
305.21372
305.26366
305.29775
305.59042
306.22579
305.76357
305.52103
305.49711
305.34448
305.27081
305.19405
305.15972
305.28971
302.16096
301.78111
301.53076
301.37427
301.28078
301.23735
303.22102
303.20465
303.16944
303.1292
303.09932
303.09479
303.12712
303.17949
303.27399
303.39519
303.50361
303.58883
303.68102
303.78166
303.96079
304.681
304.67806
304.72844
304.78634
304.84879
304.91314
304.97604
305.037
305.0924
305.14859
305.19378
305.26101
305.31223
305.61762
306.51815
305.99716
305.68192
305.7117
305.56394
305.37481
305.28142
305.17575
305.06158
304.94102
304.86356
304.968
302.76121
302.20772
301.85405
301.61314
301.46155
301.37028
301.32763
303.37771
303.361
303.32369
303.2781
303.23794
303.21614
303.22124
303.25786
303.3171
303.38387
303.49111
303.57708
303.67624
303.75281
303.92869
304.63096
304.63733
304.68918
304.74901
304.81327
304.87969
304.94523
305.0097
305.06912
305.13215
305.18666
305.27181
305.33363
305.63608
307.0821
306.43247
306.05818
306.14887
306.51672
305.51487
305.19917
305.06447
304.89555
304.74768
304.59878
304.51367
304.63135
302.76068
302.26393
301.92393
301.69264
301.54595
301.4569
301.41501
303.52665
303.50973
303.47044
303.42043
303.37251
303.33834
303.32688
303.34864
303.39567
303.45266
303.58717
303.70081
303.75663
303.79503
303.91992
304.6213
304.617
304.66643
304.72508
304.78884
304.85579
304.92282
304.99041
305.05622
305.1284
305.20836
305.35188
305.43226
305.75366
306.82708
307.58183
307.0177
306.50862
306.66162
307.87227
305.25725
304.91625
304.74668
304.52872
304.35862
304.19022
304.12299
304.38193
302.7424
302.3141
301.98452
301.76639
301.62578
301.53956
301.49874
303.66923
303.65151
303.60993
303.55621
303.5024
303.45932
303.43538
303.44567
303.48412
303.54213
303.67375
303.80905
303.89903
303.89216
304.0066
304.63365
304.61592
304.66025
304.7162
304.77887
304.84543
304.91448
304.9873
305.07357
305.20165
305.40391
305.75996
305.83707
306.45388
307.58729
308.13694
307.39383
306.95012
307.19123
304.91127
304.57457
304.34747
304.05598
303.80981
302.93656
302.33479
302.0347
301.83346
301.70043
301.61787
301.57859
303.80622
303.78706
303.74256
303.68552
303.62735
303.57809
303.55358
303.54608
303.5735
303.66196
303.74789
303.88831
303.98975
304.00263
304.10587
304.64939
304.61808
304.65895
304.71834
304.78226
304.85315
304.93323
305.04893
305.30939
305.77182
306.49779
307.43131
307.90862
308.08107
308.15136
308.24436
307.53789
307.40212
304.4674
304.08791
303.11935
302.35632
302.08119
301.8947
301.77007
301.69198
301.65477
303.93578
303.91568
303.8684
303.80842
303.74738
303.69428
303.65639
303.64946
303.66764
303.73856
303.81799
303.99107
304.09874
304.09689
304.11928
304.23244
304.32852
304.42329
304.50651
304.57316
304.6306
304.72165
304.81836
304.92796
305.13222
305.60751
306.29602
306.81047
307.44986
308.19973
308.91656
308.86429
308.27714
308.2254
308.00252
307.49881
307.73413
304.13464
303.01037
302.36692
302.11896
301.95015
301.83522
301.76243
301.72776
304.05757
304.0368
303.98724
303.92514
303.86275
303.80785
303.76674
303.75552
303.76583
303.82501
303.89772
304.05778
304.17762
304.19433
304.17462
304.24527
304.29469
304.36328
304.44129
304.52007
304.60541
304.80793
305.10231
305.36989
305.60163
305.82988
306.2345
306.65137
307.38472
308.17288
308.43521
308.45105
308.0553
308.14114
307.95252
307.67685
303.38277
302.67878
302.33985
302.15043
302.00127
301.89682
301.82993
301.79811
304.17213
304.15006
304.09908
304.03601
303.97378
303.91898
303.88427
303.86351
303.86775
303.92008
303.99251
304.12539
304.2455
304.33779
304.32884
304.36862
304.36129
304.39866
304.44923
304.51228
304.57279
304.8814
305.14837
305.37075
305.45556
305.61046
305.77849
306.17529
306.93337
307.56395
307.79096
307.66826
307.36419
307.59355
307.58414
307.78185
303.41835
303.05509
302.61003
302.33383
302.18301
302.05019
301.95605
301.89523
301.8664
304.2799
304.25632
304.20434
304.14131
304.0807
304.02747
303.99351
303.97201
303.97215
304.01319
304.11307
304.19793
304.34568
304.43427
304.44815
304.47748
304.50723
304.49058
304.51302
304.56409
304.62033
304.97385
305.12024
305.18793
305.15212
305.38867
305.72032
306.1289
306.4996
306.94548
307.39388
307.18986
307.15727
307.04484
307.16034
303.68495
303.16491
302.81232
302.57105
302.33874
302.21803
302.09835
302.01384
301.95899
301.93312
304.38143
304.35654
304.30477
304.24542
304.18762
304.13481
304.10169
304.08008
304.07733
304.10897
304.19282
304.27795
304.39381
304.55715
304.67096
304.75833
304.80997
304.78846
304.7447
304.72679
304.73069
304.80333
304.90411
305.03394
305.26741
305.61948
306.0812
306.43933
306.69544
306.98758
307.40022
307.16407
306.9401
306.85842
307.48266
303.26037
302.98235
302.76789
302.55863
302.367
302.25509
302.14655
302.07082
302.02152
301.9985
304.47767
304.45215
304.40251
304.34965
304.29465
304.243
304.20893
304.18734
304.18269
304.20719
304.2814
304.37934
304.63936
304.99991
305.15763
305.32393
305.42078
305.44348
305.43975
305.54414
305.66085
305.80136
306.00445
306.2651
306.5675
306.9321
307.29704
307.20304
307.3136
307.59948
307.69367
307.08861
306.89463
306.73969
306.60652
303.6916
303.21943
302.95226
302.74836
302.53763
302.40568
302.29429
302.19563
302.12701
302.08265
302.06154
304.56884
304.54434
304.49956
304.4523
304.40053
304.35886
304.31723
304.29452
304.28855
304.30626
304.37095
304.49544
304.89884
307.06987
306.96594
306.83656
306.63819
306.43366
306.34505
306.64946
303.40511
303.13466
302.92689
302.71037
302.54675
302.44298
302.33547
302.24528
302.18259
302.14162
302.12203
304.65565
304.63396
304.59595
304.55408
304.50605
304.45901
304.42684
304.40216
304.39526
304.40746
304.46236
304.53951
304.89529
307.22745
306.96161
307.07988
307.38859
306.35791
306.26804
306.25115
306.27849
303.79915
303.35025
303.11112
302.88918
302.71166
302.57656
302.48003
302.37809
302.29526
302.23674
302.19857
302.18012
304.74195
304.72301
304.69217
304.65518
304.6109
304.56657
304.53561
304.51
304.50278
304.51156
304.56019
304.6238
304.84431
305.9451
307.08633
306.99158
307.06309
306.21182
306.15622
306.19534
306.2245
306.32912
303.59425
303.31333
303.09163
302.88847
302.717
302.6161
302.51719
302.42129
302.34413
302.28934
302.25343
302.23585
304.82847
304.81269
304.78757
304.75548
304.71485
304.68122
304.64429
304.61807
304.61079
304.61803
304.66121
304.78184
304.92141
305.493
307.14867
307.09427
307.0591
307.57228
306.12411
306.14841
306.1775
306.21175
306.52325
304.06772
303.55805
303.29196
303.07325
302.8719
302.74538
302.65312
302.55404
302.46407
302.39179
302.34032
302.30626
302.28933
304.91542
304.90277
304.88247
304.85442
304.81709
304.78648
304.75131
304.72562
304.71916
304.72668
304.76824
304.87794
305.02337
305.28222
307.01893
306.92471
307.02164
307.08926
306.09457
306.13252
306.11973
306.06108
306.3387
304.78067
303.89368
303.51456
303.25545
303.03628
302.87649
302.78513
302.68738
302.59088
302.50623
302.43813
302.38972
302.35727
302.34086
305.0027
304.99294
304.97641
304.95171
304.91767
304.88996
304.85736
304.83321
304.82818
304.83833
304.88204
304.99048
305.1321
305.45233
306.87356
306.84157
306.93543
307.35394
306.16347
306.02257
305.86339
305.03782
305.33317
304.26483
303.7532
303.46249
303.24653
303.03317
302.90547
302.81984
302.72034
302.62769
302.54766
302.48313
302.43771
302.40676
302.39083
305.09017
305.08296
305.06923
305.05551
305.02488
304.99323
304.96298
304.94132
304.93903
304.95365
305.00294
305.11892
305.26212
305.56319
306.50884
307.55649
306.75969
306.73108
306.82624
305.87225
304.89456
304.52616
303.99131
303.68089
303.43333
303.2191
303.03384
302.94517
302.85066
302.75311
302.6644
302.58843
302.52745
302.48459
302.45505
302.43962
305.17744
305.17255
305.16087
305.14146
305.12189
305.09312
305.06604
305.04976
305.05168
305.07344
305.13029
305.24814
305.48752
305.68686
306.17005
307.04331
307.17308
306.66092
306.65401
304.43726
303.8977
303.64312
303.41953
303.21905
303.0588
302.97835
302.88053
302.78613
302.70113
302.62878
302.57126
302.53065
302.50248
302.48752
305.26485
305.26207
305.25189
305.23526
305.21936
305.19479
305.17262
305.16038
305.16761
305.19823
305.2651
305.39004
305.61702
305.95492
306.16044
306.68135
307.26498
307.82538
306.92553
306.56002
306.81038
305.14408
304.26884
303.85587
303.61928
303.4102
303.19534
303.09642
303.0076
302.91075
302.81962
302.73805
302.66894
302.6148
302.57622
302.54931
302.53481
305.3515
305.35092
305.34228
305.33586
305.31464
305.293
305.27497
305.27169
305.28799
305.3294
305.40893
305.53617
305.77093
306.12232
306.65746
307.4157
307.80092
308.43086
308.85881
307.95126
307.65552
306.77506
306.75813
304.81783
304.11849
303.82148
303.60316
303.37171
303.21287
303.12988
303.03602
302.94169
302.85362
302.77512
302.70893
302.65827
302.62154
302.5958
302.5817
305.43915
305.44054
305.44068
305.42909
305.41229
305.39491
305.3822
305.38751
305.41313
305.4668
305.56081
305.70418
305.95448
306.33276
306.89924
307.62916
308.24559
308.46866
308.54442
308.66588
307.67176
307.33457
307.06382
308.00586
305.56169
304.64379
304.06338
303.79584
303.58705
303.35569
303.24521
303.16058
303.06509
302.97356
302.88829
302.81263
302.74949
302.70181
302.66678
302.6421
302.6283
305.52683
305.52992
305.53095
305.52157
305.50722
305.49307
305.48994
305.50618
305.5429
305.61121
305.7233
305.88929
306.166
306.57878
307.15627
307.813
308.27517
308.44812
308.47517
308.44787
308.39455
308.5614
307.72587
307.54024
307.42349
307.68618
306.14376
305.23892
304.37174
304.01345
303.78367
303.57077
303.36415
303.28245
303.19083
303.09547
303.00655
302.92383
302.85073
302.7907
302.74555
302.71206
302.68829
302.67472
305.61502
305.61942
305.61402
305.60742
305.60471
305.59566
305.60236
305.62826
305.67837
305.76364
305.88947
306.09218
306.40362
306.85138
307.41969
307.98978
308.32914
308.44784
308.46072
308.41861
308.34709
308.22403
308.06788
307.83091
307.79597
307.83929
308.16494
308.23986
305.98609
304.73054
304.27178
303.98273
303.76512
303.52808
303.39837
303.31673
303.22119
303.12757
303.04093
302.9605
302.88972
302.8329
302.78977
302.75758
302.7346
302.72122
305.70451
305.71791
305.70634
305.70938
305.70087
305.69983
305.71722
305.75457
305.81974
305.91606
306.07526
306.31278
306.66312
307.13538
307.67333
308.14708
308.39319
308.47543
308.4821
308.4376
308.36684
308.27098
308.1482
308.03027
307.9775
307.98328
308.0013
307.98467
307.99813
306.6671
305.6269
304.59897
304.21534
303.96995
303.739
303.54489
303.44282
303.35147
303.25455
303.16181
303.07704
302.99868
302.93032
302.87626
302.83477
302.80365
302.78137
302.76812
305.79684
305.80246
305.80784
305.80441
305.80022
305.80789
305.83507
305.88526
305.96633
306.08453
306.27323
306.54802
306.93213
307.40958
307.90104
308.27678
308.4667
308.52071
308.52568
308.48851
308.42851
308.35015
308.26088
308.16985
308.09866
308.05031
308.00437
307.9539
307.92658
307.91619
307.95913
306.56799
305.01774
304.50544
304.18726
303.94981
303.69957
303.57619
303.48435
303.38536
303.28814
303.19796
303.11511
303.03895
302.97339
302.92133
302.88101
302.85071
302.82897
302.81575
305.89194
305.89718
305.90321
305.90192
305.90302
305.91895
305.95667
306.02035
306.11146
306.26081
306.48061
306.78937
307.19384
307.65462
308.08784
308.38369
308.52968
308.5723
308.57762
308.54852
308.49982
308.43632
308.3628
308.28631
308.21349
308.14426
308.074
308.00106
307.93367
307.89344
307.85073
307.82794
307.93186
307.18925
306.02699
304.87251
304.44563
304.15784
303.92577
303.7079
303.61625
303.52684
303.42371
303.32799
303.23785
303.15607
303.08122
303.0181
302.96785
302.92861
302.89905
302.87776
302.86447
305.99828
306.00259
306.00211
306.0029
306.00913
306.03366
306.08201
306.15909
306.27684
306.44267
306.69094
307.02434
307.43268
307.8605
308.23336
308.47121
308.58912
308.62607
308.63115
308.60855
308.5687
308.51622
308.45428
308.38601
308.31395
308.23843
308.15833
308.07312
307.98506
307.8981
307.81341
307.77357
307.74147
307.76697
307.01042
305.33403
304.75788
304.39952
304.11964
303.87402
303.74578
303.65839
303.56929
303.46194
303.36573
303.27885
303.19893
303.12691
303.06659
303.01718
302.97839
302.94924
302.92829
302.91483
306.10097
306.10458
306.10416
306.10728
306.11962
306.15247
306.21106
306.30167
306.42943
306.62562
306.89585
307.24195
307.63991
308.02961
308.34913
308.55256
308.64348
308.67704
308.68281
308.66539
308.63225
308.58727
308.53251
308.46956
308.3997
308.32324
308.23985
308.14923
308.05182
307.94902
307.84306
307.74225
307.65407
307.62888
307.613
307.63779
307.59624
306.51228
305.16919
304.67412
304.35632
304.05181
303.88748
303.79531
303.70675
303.6134
303.50805
303.41502
303.32681
303.24748
303.17566
303.11572
303.06766
303.02981
303.00142
302.98097
302.96735
306.20883
306.21206
306.2125
306.21718
306.23485
306.27508
306.34336
306.43909
306.59101
306.80464
307.08831
307.4359
307.8141
308.16696
308.4412
308.61398
308.69308
308.72475
308.73127
308.71779
308.68937
308.64926
308.599
308.53953
308.47168
308.39576
308.31167
308.2191
308.1178
308.00788
307.89053
307.76946
307.65365
307.54777
307.47336
307.50713
307.7789
307.8449
307.35981
305.74547
305.00545
304.60978
304.30356
304.03778
303.92645
303.84706
303.75423
303.66063
303.55137
303.45764
303.3741
303.29552
303.22859
303.17184
303.12323
303.08499
303.05685
303.03674
303.02284
306.32294
306.32612
306.32725
306.33433
306.35685
306.40346
306.4797
306.59496
306.75143
306.97624
307.26504
307.60524
307.95858
308.27605
308.51541
308.66665
308.73862
308.76879
308.77604
308.76551
308.74027
308.70317
308.65544
308.59782
308.53101
308.45543
308.37116
308.27792
308.17512
308.06222
307.93934
307.80812
307.67244
307.54574
307.46131
307.55443
307.85206
307.76288
306.42927
305.50372
304.93802
304.56688
304.23586
304.077
303.98309
303.89853
303.81113
303.71056
303.6117
303.51873
303.43101
303.35552
303.28502
303.22465
303.1779
303.14145
303.1149
303.09586
303.08209
306.44511
306.44907
306.45092
306.46075
306.4876
306.53951
306.62239
306.74568
306.91
307.13975
307.4266
307.75295
308.07932
308.36614
308.57655
308.71218
308.77949
308.80914
308.81713
308.8088
308.78557
308.75003
308.70325
308.646
308.57901
308.50286
308.41786
308.32389
308.22025
308.1061
307.98084
307.84455
307.69911
307.55546
307.46441
307.51976
307.58135
307.06377
306.15834
305.39444
304.88553
304.46326
304.25999
304.1402
304.0414
303.95525
303.85765
303.77282
303.6527
303.56752
303.48945
303.40793
303.34517
303.29269
303.2434
303.20562
303.17923
303.16043
303.14772
306.57667
306.58151
306.58549
306.59848
306.62916
306.68517
306.77249
306.9004
307.06794
307.29711
307.57618
307.88377
308.18201
308.44099
308.63625
308.7516
308.81624
308.8461
308.85492
308.84824
308.82608
308.79093
308.74335
308.68527
308.60869
308.53091
308.4441
308.35657
308.2522
308.13702
308.01071
307.87233
307.72199
307.56978
307.46293
307.45722
307.34893
306.79395
305.97707
305.30641
304.80917
304.45704
304.32421
304.20637
304.09931
304.00631
303.93349
303.77111
303.74167
303.64759
303.55124
303.4773
303.41207
303.34583
303.30111
303.26806
303.2456
303.22264
303.21931
306.71987
306.72572
306.73259
306.74911
306.78335
306.8417
306.92398
307.05294
307.2277
307.45154
307.71757
308.00207
308.27104
308.50384
308.67937
308.78573
308.8491
308.87992
308.88977
308.88442
308.86281
308.82672
308.77031
308.71059
308.63995
308.55943
308.46979
308.37126
308.26364
308.14618
308.02744
307.88847
307.73616
307.5753
307.43859
307.37287
307.16775
306.60343
305.85266
305.20793
304.73514
304.50851
304.40405
304.27026
304.17397
304.08308
303.915
303.78598
303.77966
303.64584
303.61661
303.53745
303.47877
303.43476
303.38365
303.34766
303.32497
303.3114
303.29446
306.87358
306.88155
306.89195
306.9123
306.94926
307.01013
307.09283
307.22058
307.39095
307.60515
307.85314
308.11067
308.34954
308.56583
308.7157
308.81498
308.87784
308.91049
308.92172
308.91769
308.89641
308.85955
308.80154
308.73914
308.66523
308.58108
308.48763
308.38532
308.2741
308.15378
308.02335
307.89094
307.73737
307.57322
307.42539
307.29121
307.02329
306.47683
305.78464
305.15539
304.77372
304.5973
304.46152
304.3262
304.17368
304.06956
303.92491
303.8254
303.81535
303.66538
303.71365
303.63073
303.55261
303.46926
303.43156
303.40588
303.39216
303.38609
303.38193
307.03562
307.04604
307.06032
307.08464
307.12524
307.17957
307.27764
307.39373
307.55658
307.75694
307.98249
308.21061
308.42073
308.60321
308.74584
308.83925
308.90188
308.93709
308.95026
308.94775
308.92698
308.88931
308.82933
308.76388
308.68621
308.59786
308.49998
308.39317
308.27759
308.15307
308.01942
307.87528
307.72839
307.56136
307.39531
307.21697
306.90808
306.38098
305.71073
305.09648
304.82788
304.70288
304.55766
304.41143
304.18516
304.08013
303.95669
303.88594
303.84481
303.69574
303.71354
303.67676
303.61895
303.58119
303.54642
303.51604
303.50031
303.49529
303.49114
307.19088
307.20356
307.22138
307.24926
307.29244
307.36371
307.44406
307.56337
307.71683
307.90085
308.10192
308.30045
308.48266
308.64937
308.77003
308.85818
308.92039
308.95843
308.97412
308.97371
308.95408
308.91602
308.85409
308.78557
308.704
308.6113
308.5088
308.39721
308.27671
308.14718
308.00855
307.85996
307.7082
307.53654
307.35749
307.1499
306.82269
306.32469
305.67879
305.13066
304.91971
304.72254
304.55867
304.40233
304.22941
304.14052
304.04327
303.96583
303.91549
303.7991
303.77727
303.79299
303.72545
303.61448
303.58622
303.57255
303.57256
303.58167
303.58648
307.35805
307.37327
307.39473
307.42622
307.47203
307.53603
307.61422
307.72763
307.86922
308.0336
308.20799
308.38563
308.53338
308.67891
308.78771
308.87093
308.93242
308.97331
308.9923
308.99464
308.97696
308.93926
308.87581
308.8046
308.71937
308.6225
308.51559
308.39933
308.27394
308.13938
307.99567
307.84216
307.68476
307.50782
307.31933
307.0998
306.75812
306.26615
305.69677
305.20654
304.9348
304.7949
304.62608
304.46861
304.30119
304.19692
304.05639
304.02188
303.97134
303.84145
303.86908
303.80425
303.80597
303.74484
303.72225
303.72101
303.7344
303.74575
303.74544
307.46311
307.4798
307.50384
307.53793
307.5853
307.64092
307.72486
307.83239
307.96372
308.11366
308.2716
308.4335
308.57453
308.69652
308.79649
308.87589
308.93683