/*--------------------------------*- C++ -*----------------------------------*\
  =========                 |
  \\      /  F ield         | OpenFOAM: The Open Source CFD Toolbox
   \\    /   O peration     | Website:  https://openfoam.org
    \\  /    A nd           | Version:  8
     \\/     M anipulation  |
\*---------------------------------------------------------------------------*/
FoamFile
{
    version     2.0;
    format      ascii;
    class       volScalarField;
    location    "7200/air";
    object      w;
}
// * * * * * * * * * * * * * * * * * * * * * * * * * * * * * * * * * * * * * //

dimensions      [0 0 0 0 0 0 0];

internalField   nonuniform List<scalar> 
167754
(
0.017955853
0.017956197
0.017957177
0.017958603
0.017960194
0.017961692
0.017962911
0.017963776
0.017964314
0.017964609
0.017964749
0.017964786
0.017964723
0.017964486
0.017963871
0.017962464
0.017959631
0.017954701
0.017947308
0.017937695
0.017926756
0.01791577
0.017906155
0.017898819
0.017894329
0.01789387
0.017898343
0.017907024
0.017918482
0.017928941
0.017938168
0.017945922
0.017951991
0.01795646
0.017959582
0.017961663
0.017962993
0.017963815
0.017964308
0.017964598
0.017964765
0.017964857
0.0179649
0.017964898
0.01796481
0.017964466
0.01796347
0.017961341
0.01795799
0.017953813
0.017949331
0.017944956
0.017940938
0.017937412
0.017934464
0.017932174
0.017930631
0.017929931
0.017930075
0.017924809
0.017925871
0.017928683
0.017932907
0.017938048
0.017943569
0.017948926
0.017953631
0.017957318
0.017959813
0.017961115
0.017961234
0.017959916
0.017956363
0.017949183
0.01793672
0.017917744
0.017892009
0.017860375
0.017824691
0.017787669
0.0177525
0.017722329
0.017698491
0.017681615
0.017675766
0.017684027
0.017704913
0.01773623
0.017768114
0.017799199
0.017828911
0.017856334
0.017880876
0.017902122
0.017919675
0.017933423
0.017943642
0.017950895
0.017955849
0.017959117
0.017961178
0.017962351
0.017962736
0.017961946
0.017958762
0.017952043
0.017942115
0.017930714
0.017919556
0.017909532
0.017901006
0.017893979
0.017888298
0.017883822
0.017880482
0.017878284
0.017877275
0.017877406
0.017875315
0.017877085
0.017881416
0.017887929
0.017896088
0.017905307
0.017914928
0.017924233
0.017932424
0.017938618
0.017941828
0.017940891
0.017934312
0.01792022
0.017896719
0.017862521
0.017817282
0.01776143
0.017695851
0.017621579
0.017540766
0.017461319
0.017392401
0.017336379
0.017290883
0.017270728
0.017285379
0.017326938
0.017391331
0.017457523
0.017521218
0.017581914
0.01763885
0.017692299
0.017741953
0.017786846
0.017826141
0.017859444
0.017886684
0.017908114
0.01792426
0.017935754
0.017943092
0.017946241
0.017944123
0.01793504
0.017919231
0.017900029
0.017881333
0.01786534
0.017852536
0.017842604
0.01783498
0.017829132
0.017824683
0.017821435
0.017819337
0.01781842
0.017818654
0.017816619
0.017818828
0.017824044
0.017831815
0.017841548
0.017852609
0.017864273
0.017875684
0.017885744
0.017892937
0.017895172
0.017889786
0.017873915
0.017845193
0.017802174
0.017744233
0.017671102
0.017581995
0.01747419
0.017344196
0.017373212
0.017217425
0.01679474
0.016673802
0.01656078
0.016506221
0.016532987
0.016614147
0.016744213
0.016893551
0.017038528
0.01717479
0.017291239
0.017393739
0.017484679
0.017564684
0.017635192
0.017697154
0.017750803
0.017796268
0.017833636
0.017862759
0.017883193
0.017893963
0.017893535
0.017881381
0.017860623
0.017837262
0.017816254
0.017799632
0.017787337
0.017778508
0.017772181
0.017767575
0.017764181
0.017761749
0.017760229
0.017759684
0.017760141
0.017753826
0.017756262
0.017761925
0.01777023
0.017780448
0.017791793
0.017803358
0.017814047
0.017822427
0.017826528
0.017823685
0.017810603
0.01778382
0.017740657
0.017679575
0.017599932
0.017501469
0.017382751
0.017369273
0.017189801
0.01689563
0.016521225
0.016250954
0.015648802
0.015834693
0.01533434
0.015347589
0.015415403
0.015594567
0.015846025
0.016102564
0.016378702
0.016649682
0.016889498
0.01709092
0.017245232
0.017367536
0.017468602
0.017553631
0.017626198
0.017687834
0.017738267
0.017776129
0.017799461
0.017806632
0.017798529
0.017780334
0.017759393
0.01774109
0.017727424
0.017718157
0.017712218
0.017708474
0.017706039
0.017704361
0.017703205
0.017702576
0.017702606
0.017703398
0.017688798
0.017691352
0.017697233
0.017705673
0.017715736
0.017726394
0.017736458
0.017744507
0.017748753
0.017746962
0.017736395
0.017713843
0.017675695
0.017618806
0.017540834
0.017440033
0.017312542
0.017284451
0.017088068
0.016831648
0.016580978
0.015400134
0.015179659
0.015033507
0.014873223
0.014782801
0.014715237
0.014691805
0.01453904
0.014624582
0.014806272
0.015127497
0.015540317
0.015968395
0.016368789
0.016701296
0.016960068
0.017153092
0.01729387
0.017405451
0.017497503
0.017573339
0.017632361
0.017672432
0.017692339
0.01769424
0.017684488
0.017670898
0.017658993
0.017650907
0.017646513
0.017644781
0.017644578
0.017645011
0.017645552
0.017646025
0.017646524
0.017647281
0.017648488
0.017621948
0.017624589
0.017630598
0.017638982
0.017648543
0.017657961
0.017665726
0.017670082
0.017668949
0.017659969
0.017640198
0.017607243
0.017557
0.01748563
0.017388177
0.017259448
0.017224488
0.017030965
0.016881247
0.01668428
0.014561299
0.014568862
0.014467536
0.014467883
0.014413615
0.014229051
0.014170044
0.014173601
0.014185423
0.014226356
0.014227048
0.014415791
0.014793831
0.015276168
0.015784244
0.016249335
0.016623366
0.016901297
0.017106135
0.017255072
0.017371066
0.017460145
0.017523048
0.017560379
0.017576255
0.017578407
0.017575088
0.017571903
0.017571163
0.017572961
0.01757643
0.017580524
0.017584406
0.017587601
0.017590013
0.017591847
0.017593455
0.017595131
0.017553076
0.017555845
0.017561995
0.017570268
0.017579164
0.017587048
0.017592122
0.017592417
0.017585978
0.017616538
0.01753727
0.017493128
0.017428391
0.01733833
0.017213432
0.017176815
0.017001549
0.016880457
0.014403045
0.014368299
0.014281664
0.014035897
0.013960848
0.013886
0.013874733
0.01391229
0.01398161
0.014039616
0.014261862
0.014651789
0.015194852
0.015747345
0.01622476
0.016607584
0.016898572
0.01711013
0.017256198
0.017355461
0.017417054
0.017450428
0.017466512
0.017474899
0.017481609
0.017489192
0.017497987
0.017507321
0.01751627
0.017524065
0.017530285
0.017534913
0.017538266
0.017540814
0.017542943
0.017481533
0.017484596
0.017491062
0.017499304
0.017507508
0.017513726
0.01751594
0.01751221
0.017546198
0.017520392
0.017489161
0.017442898
0.017283211
0.017169059
0.017001139
0.016932227
0.016811292
0.014332722
0.014252647
0.014189563
0.01376342
0.013736607
0.013726243
0.013767829
0.013858949
0.014052291
0.014221528
0.014636077
0.015165515
0.015762364
0.016301696
0.01671788
0.016998467
0.017169047
0.017267223
0.017322169
0.017353301
0.017373624
0.017390327
0.017406373
0.017422363
0.017437814
0.017451905
0.017463909
0.017473431
0.017480497
0.017485499
0.017488979
0.017491575
0.017406616
0.017410091
0.017417094
0.017425621
0.017433253
0.017437722
0.017436634
0.017427026
0.017453023
0.017446114
0.017379222
0.017304968
0.017221429
0.017098427
0.016913012
0.016646105
0.016553249
0.014245122
0.014260128
0.014175665
0.013637383
0.01364464
0.013668719
0.013800534
0.01401749
0.014361408
0.014698316
0.015443794
0.016150348
0.016662279
0.016963721
0.01711877
0.017199564
0.017244789
0.017275473
0.017300948
0.017324608
0.017347264
0.017368566
0.017387724
0.017403996
0.017416945
0.017426565
0.017433218
0.017437705
0.01744081
0.017327485
0.017331591
0.017339392
0.017348422
0.017355777
0.017358559
0.017354072
0.017387662
0.017374895
0.017398168
0.017111223
0.016854661
0.016595759
0.01631213
0.014238868
0.014183394
0.014115083
0.013590088
0.013634334
0.013665637
0.01402302
0.014790076
0.015641846
0.0163564
0.016822423
0.016998734
0.017091278
0.017147131
0.017184806
0.017216795
0.017246152
0.01727413
0.01730044
0.017324182
0.017344482
0.017360775
0.017372866
0.017381212
0.017386761
0.017390403
0.017242916
0.017248022
0.017257085
0.017267032
0.017274287
0.017275356
0.01731606
0.017300491
0.017325504
0.016691246
0.016303112
0.016014447
0.014183817
0.014118853
0.01365209
0.014190557
0.015384014
0.016270027
0.016696724
0.016950701
0.017046206
0.017105844
0.01710429
0.017138734
0.017172347
0.017203773
0.017233897
0.017261474
0.017285313
0.017304641
0.017319133
0.017329213
0.017335862
0.017340071
0.017151237
0.017157893
0.017168926
0.01718041
0.017187721
0.017185576
0.017222764
0.017221462
0.015733198
0.014136886
0.014113126
0.014051116
0.01531445
0.016347182
0.016736296
0.016855282
0.016954663
0.017013046
0.017064198
0.017099932
0.017134184
0.017136365
0.01716871
0.017199642
0.017226136
0.017248146
0.017264983
0.017276832
0.017284631
0.017289455
0.017050255
0.01705919
0.017073169
0.017087078
0.017094865
0.017143055
0.017135782
0.017176225
0.014773074
0.014117083
0.014052885
0.015858446
0.016307004
0.01691776
0.016967356
0.017009689
0.017046654
0.017093021
0.017129748
0.017163421
0.017167038
0.017190844
0.017209818
0.017223492
0.017232557
0.017238093
0.016937229
0.016949258
0.016967318
0.0169847
0.016993729
0.017044814
0.017078017
0.014169602
0.014077153
0.013995852
0.015640471
0.015854251
0.016080689
0.016958934
0.017002247
0.017039655
0.017080565
0.017125406
0.017157283
0.017152288
0.017168294
0.017178988
0.017185423
0.016809017
0.016824803
0.016847831
0.016868987
0.016943089
0.016952144
0.017018382
0.014187326
0.014140051
0.01403816
0.015514069
0.015657039
0.015897776
0.016998764
0.017038277
0.017078332
0.017119267
0.017109517
0.017123019
0.017130776
0.016662605
0.016682117
0.01670999
0.016735354
0.016824844
0.016891711
0.014191177
0.014098676
0.014007047
0.01530783
0.015472256
0.017032742
0.017050602
0.017045768
0.017063769
0.017073455
0.016496282
0.016517816
0.016545262
0.016653976
0.016700463
0.016831382
0.014205808
0.014161999
0.01405228
0.015077759
0.015062261
0.015210919
0.016969823
0.016984406
0.016978902
0.017000838
0.01701281
0.016311466
0.016332863
0.016356235
0.016456488
0.016526619
0.014230743
0.014221809
0.014126131
0.014026474
0.014865148
0.014704223
0.014963856
0.016879199
0.016906482
0.016907583
0.01693371
0.016948251
0.016113298
0.016133022
0.016152374
0.016238499
0.016266479
0.016415218
0.014276157
0.014203404
0.014087069
0.014009882
0.014319436
0.014269877
0.016738016
0.016771303
0.016830345
0.016861882
0.016879278
0.015909703
0.015927278
0.015943506
0.015922617
0.015979828
0.016017142
0.014283208
0.014280455
0.014179529
0.014063942
0.014079554
0.013463956
0.013154322
0.016612773
0.016678908
0.016747452
0.016785016
0.016805428
0.015709227
0.015725034
0.015739481
0.01572048
0.015727739
0.015659961
0.014342458
0.014275569
0.014161858
0.014054288
0.013593933
0.01302307
0.012946107
0.016459548
0.016574738
0.016658518
0.016702837
0.016726229
0.015519421
0.01553438
0.015548585
0.015534698
0.015528698
0.015453254
0.015424359
0.014364596
0.014357176
0.014269376
0.014153872
0.014034218
0.013857752
0.013691587
0.013575492
0.013492873
0.013437067
0.013394759
0.013353366
0.013267764
0.013059103
0.012946952
0.012910786
0.012894306
0.012876246
0.012863987
0.0128589
0.01285232
0.012841914
0.012831444
0.012822035
0.012816383
0.01283128
0.012871609
0.012908367
0.016290471
0.016461536
0.01656371
0.016615057
0.016641145
0.015344851
0.015358817
0.015373649
0.015367841
0.015306562
0.015280374
0.015225293
0.014422693
0.014358159
0.014255813
0.014146401
0.014009235
0.013900093
0.01373285
0.013614643
0.01354952
0.013515262
0.013495467
0.013460311
0.013403695
0.013204923
0.013070355
0.012999123
0.012943155
0.012909961
0.012901166
0.01290748
0.012904368
0.012886832
0.012876272
0.012855366
0.012848959
0.012860829
0.012886431
0.012908481
0.015998309
0.016144039
0.016343762
0.016462631
0.016521307
0.016549665
0.015185217
0.015197895
0.015213435
0.015214127
0.015170972
0.015137833
0.015067802
0.014436102
0.014426773
0.01434809
0.014239858
0.014125908
0.014002995
0.013875178
0.013759415
0.013680755
0.013405937
0.013210151
0.013155006
0.01294896
0.012959077
0.012910076
0.012912382
0.01290429
0.0129058
0.01291728
0.012920534
0.015808804
0.016007746
0.016228053
0.016356832
0.016421168
0.016451551
0.015038963
0.015050815
0.015067091
0.015072898
0.015042361
0.015011183
0.01491784
0.01446083
0.014464225
0.014400761
0.014314349
0.014225144
0.014153977
0.013939589
0.013893706
0.013830362
0.013757631
0.013703183
0.013598315
0.013440245
0.013335691
0.013272339
0.013221368
0.013173583
0.013127878
0.013090999
0.013056555
0.013018214
0.012997129
0.012965833
0.012946813
0.012978413
0.0130041
0.012996402
0.012991591
0.012964085
0.0129373
0.015640623
0.015892445
0.016118788
0.016248898
0.01631626
0.016347837
0.014906387
0.014917505
0.014934327
0.014944481
0.014927067
0.014904355
0.014829311
0.0147819
0.014477645
0.014424975
0.014335947
0.014226444
0.014150074
0.014101586
0.014004134
0.013938701
0.013441429
0.013383747
0.013328986
0.013277792
0.013231223
0.013189194
0.013150902
0.013115129
0.013080429
0.013044591
0.013020159
0.012990538
0.012977227
0.013057315
0.013138528
0.013126761
0.01304941
0.012997919
0.012950641
0.015521189
0.015795832
0.016015641
0.01614118
0.016208912
0.01624083
0.014786761
0.01479711
0.014814223
0.014827963
0.014823102
0.014778769
0.014751876
0.014702915
0.014449286
0.014449705
0.014349559
0.014226752
0.014099273
0.014039521
0.014020752
0.013991222
0.013941954
0.01362218
0.013547578
0.013468645
0.01340361
0.013347121
0.013297786
0.013254173
0.013215108
0.013179166
0.013145165
0.013112767
0.013083708
0.013051061
0.013050255
0.013127438
0.013214319
0.013252459
0.013160954
0.013059569
0.012968079
0.015481573
0.015731002
0.015919325
0.016035678
0.01610181
0.016133444
0.014678527
0.01468815
0.014705319
0.014721617
0.014725706
0.014704383
0.014655509
0.014626189
0.014559437
0.014480586
0.014443847
0.014408557
0.01431319
0.014164099
0.014060385
0.013627805
0.01356507
0.013489317
0.013433736
0.013380155
0.013330609
0.013285732
0.013245291
0.013208671
0.013175145
0.013143559
0.013122464
0.013071972
0.013072837
0.013167181
0.01328452
0.013385913
0.01343753
0.013448086
0.013305364
0.015406672
0.015653801
0.015825379
0.015933755
0.015997424
0.016028364
0.014579836
0.014588893
0.01460605
0.014624147
0.014634378
0.014627586
0.014599896
0.014552745
0.014523819
0.014466549
0.014407253
0.014344608
0.014286743
0.014177761
0.01410043
0.013748905
0.013639282
0.013570132
0.013516724
0.013461545
0.013407913
0.013357587
0.01331121
0.013269066
0.013230908
0.013196014
0.013162773
0.01314149
0.013084328
0.013072117
0.013164329
0.013272443
0.013411948
0.01352817
0.013598849
0.013653543
0.013716472
0.013776072
0.015331241
0.01557575
0.015735343
0.01583676
0.0158976
0.015927615
0.014488923
0.014497627
0.014514808
0.014534178
0.014548528
0.014550866
0.014537309
0.014507121
0.014463415
0.014410981
0.014390243
0.014332439
0.014267913
0.014182072
0.014118047
0.013710389
0.013637273
0.013586257
0.013532284
0.013477662
0.013424592
0.013374881
0.013328734
0.013286365
0.013247652
0.01321187
0.013177396
0.013155772
0.013094633
0.013056559
0.013124847
0.013220596
0.013338159
0.013490813
0.013607341
0.013659965
0.013713146
0.013775347
0.013839256
0.013909419
0.013975226
0.015113825
0.015273332
0.015502099
0.015651253
0.015746307
0.015804111
0.01583308
0.014404382
0.014412875
0.014430138
0.014450427
0.014467552
0.014475747
0.014471084
0.014451452
0.014413885
0.014389875
0.014325354
0.014271699
0.014196025
0.014145198
0.014099776
0.013697798
0.013632479
0.013585791
0.01353525
0.013483886
0.013433405
0.013385662
0.013341084
0.013299593
0.013261144
0.01322505
0.013189913
0.013168511
0.013106255
0.013034438
0.013097059
0.013137118
0.013139643
0.013171028
0.013727293
0.013771852
0.01383247
0.013905687
0.013983115
0.014057721
0.014127033
0.014196528
0.015057235
0.015219648
0.01543596
0.015574545
0.015663234
0.01571777
0.015745576
0.014325064
0.014333371
0.014350768
0.014371699
0.014390614
0.014402482
0.014403363
0.014389731
0.014353419
0.014326151
0.01422869
0.014122075
0.014084946
0.014061283
0.014049128
0.013681953
0.0136194
0.013576795
0.013530409
0.013483173
0.013436668
0.01339223
0.013349793
0.013309646
0.013271698
0.013235359
0.013199839
0.013179708
0.013122398
0.013064844
0.013045159
0.013067616
0.013085076
0.013068404
0.013055631
0.013913005
0.013971618
0.014041393
0.014137456
0.014228958
0.014310453
0.014361965
0.014428533
0.014967004
0.015175303
0.015379739
0.015505764
0.015587585
0.015638558
0.015665053
0.014249031
0.014257736
0.014275497
0.014296838
0.014316891
0.014330929
0.014335052
0.014324794
0.01428903
0.014257967
0.014150991
0.014023691
0.013948982
0.013968933
0.013977612
0.013660402
0.013599425
0.013560684
0.013519364
0.013477175
0.013435585
0.013394624
0.0133545
0.013315302
0.013276884
0.013239373
0.013203436
0.013185905
0.013139641
0.013100944
0.013081801
0.013062981
0.013071443
0.013060952
0.01413482
0.014218952
0.014294754
0.014411231
0.014528364
0.014860246
0.015168855
0.015333042
0.015444216
0.015518661
0.015565822
0.015590854
0.014174831
0.014184474
0.014203412
0.014225126
0.014245462
0.014260621
0.014266666
0.014258494
0.014225893
0.01414366
0.014089966
0.013968332
0.01386416
0.013874472
0.013898441
0.013634865
0.013597836
0.013561731
0.013524999
0.013487657
0.013450308
0.013413623
0.013376205
0.013334724
0.013287694
0.013244321
0.013213558
0.013193576
0.013179542
0.013151518
0.01312442
0.013091554
0.013082183
0.01441107
0.014484229
0.014800135
0.015142317
0.015289223
0.015387996
0.015455289
0.015498556
0.015522016
0.014103291
0.014113615
0.014133816
0.014156083
0.014176111
0.014191341
0.014198256
0.014191667
0.014162393
0.014091921
0.014037816
0.01389255
0.013786242
0.013805066
0.013806524
0.013780697
0.013749553
0.013714014
0.013671942
0.013625733
0.013592118
0.013549493
0.013514574
0.013480865
0.013447012
0.013412794
0.0133757
0.013310592
0.013257802
0.013238319
0.013231544
0.013229126
0.013227965
0.013196642
0.013157444
0.013112223
0.013093552
0.014572125
0.014859054
0.015120242
0.0152483
0.015335801
0.015396291
0.015435705
0.015457531
0.0140349
0.01404565
0.014066846
0.014089468
0.014108642
0.014123138
0.014130013
0.01412457
0.014098141
0.014035359
0.013985301
0.013856581
0.013741689
0.013728892
0.013736244
0.013709223
0.013696123
0.013670716
0.013637378
0.013599961
0.013572777
0.013540922
0.013511223
0.013480628
0.013451327
0.013424649
0.013377923
0.013304725
0.013265597
0.013255136
0.013251186
0.013260383
0.013274526
0.013230194
0.013163974
0.013123779
0.014760704
0.014960916
0.01510349
0.015210046
0.0152867
0.01534071
0.015376371
0.015396536
0.013969661
0.013981192
0.014002699
0.01402514
0.014042995
0.014056158
0.014062356
0.014057418
0.014034024
0.013977232
0.013931806
0.013818723
0.013710703
0.013622446
0.013617861
0.01360308
0.01361296
0.013605429
0.013581151
0.013551146
0.013531823
0.013512117
0.013495232
0.013476112
0.013451806
0.013411691
0.013332278
0.013263082
0.013260373
0.013266658
0.013271542
0.013344841
0.013296181
0.013226063
0.013194398
0.013172686
0.014735467
0.01483292
0.014970999
0.015083809
0.015173147
0.015239898
0.015287838
0.015319911
0.015338432
0.013907637
0.013920014
0.013941391
0.013963028
0.013979189
0.013990594
0.013995664
0.013990803
0.01396986
0.013921244
0.013830689
0.013778666
0.01365575
0.01356256
0.013530196
0.013506831
0.013505295
0.013510946
0.013507024
0.013479406
0.013462195
0.013437608
0.01342617
0.013431611
0.0133932
0.013331159
0.013275488
0.013220703
0.013259204
0.013296825
0.013310322
0.013431447
0.013399547
0.01340036
0.013346999
0.014720114
0.014783017
0.014876163
0.014969314
0.015061115
0.015136713
0.0151948
0.015237216
0.015265964
0.01528292
0.013848839
0.013861924
0.013882808
0.013903108
0.013917249
0.013926618
0.013930279
0.013925228
0.013906301
0.013864696
0.013788355
0.013737439
0.013619787
0.013523636
0.013469346
0.013438071
0.013417012
0.013407726
0.013392721
0.013364357
0.013344054
0.013334294
0.013326019
0.01331619
0.013285906
0.01324743
0.013206197
0.013158429
0.013141374
0.013161457
0.013248349
0.013492579
0.01353215
0.013556719
0.01351457
0.014734294
0.014799963
0.014876835
0.014958175
0.015035541
0.015100349
0.015151077
0.015188635
0.015214438
0.015229992
0.013793162
0.013806716
0.013826736
0.01384526
0.013857157
0.01386431
0.01386638
0.013860945
0.013843742
0.013807863
0.0137429
0.013688698
0.013565406
0.013491442
0.013452129
0.013418854
0.01338985
0.013364802
0.013342629
0.013321696
0.013301824
0.013283604
0.013266964
0.013251245
0.013235536
0.013216507
0.013179811
0.013145704
0.01310734
0.0130859
0.013157644
0.013516422
0.013549486
0.013578191
0.013597534
0.014674865
0.014736511
0.014796916
0.014868696
0.014940982
0.015007741
0.015064046
0.015108657
0.015142106
0.015165445
0.015179829
0.013740358
0.013754096
0.013772885
0.013789291
0.013798832
0.01380364
0.013803966
0.01379796
0.013782277
0.013751681
0.01369652
0.013654156
0.013558119
0.013451038
0.013510748
0.013544751
0.01357954
0.013611866
0.01364203
0.013658999
0.014673507
0.014722325
0.014788092
0.014855058
0.014919827
0.01497847
0.015028023
0.015067651
0.015097753
0.015119131
0.015132615
0.013690045
0.013703688
0.013720943
0.01373499
0.013742131
0.013744471
0.01374284
0.013735898
0.013721055
0.013694239
0.013645876
0.013618735
0.013550181
0.013376213
0.013422719
0.013466077
0.013477888
0.013606726
0.013646148
0.013684405
0.013712033
0.014613656
0.014664111
0.014712572
0.014775482
0.014837689
0.014896177
0.014948415
0.014992588
0.015028217
0.015055664
0.015075531
0.015088344
0.013641738
0.013655062
0.013670584
0.013682125
0.013686856
0.013686578
0.013682733
0.01367436
0.013659422
0.013634537
0.013590591
0.013573784
0.013525883
0.013503473
0.013354678
0.013388312
0.013402097
0.013646595
0.013679412
0.013730639
0.013767905
0.013796011
0.014605943
0.014639859
0.01470015
0.01476018
0.014817846
0.014871057
0.014918145
0.014958014
0.01499045
0.015015795
0.015034487
0.015046777
0.013594884
0.013607756
0.013621467
0.013630431
0.013632736
0.013629659
0.013623275
0.013612909
0.013596867
0.013572136
0.013530372
0.013462725
0.013471977
0.013460209
0.013290162
0.013328133
0.013345061
0.013320874
0.013727288
0.013777142
0.013820539
0.013873731
0.01394443
0.014543481
0.014587544
0.014628022
0.014686051
0.01474291
0.014796433
0.014845193
0.014888085
0.014924476
0.014954333
0.014977979
0.01499573
0.015007593
0.013548883
0.013561278
0.013573216
0.013579596
0.013579425
0.013573294
0.01356398
0.013550982
0.013532815
0.013506662
0.013465122
0.013401702
0.013406309
0.013403494
0.013252056
0.013281254
0.01329887
0.013298814
0.013822169
0.013874716
0.013948827
0.014071117
0.014153305
0.014494098
0.014529396
0.014557893
0.014614667
0.014670632
0.014724281
0.014774103
0.014819085
0.014858506
0.014892033
0.014919752
0.014941982
0.014958949
0.014970474
0.013503104
0.013515104
0.013525399
0.013529197
0.013526335
0.013516955
0.013504226
0.013487882
0.013466573
0.013437593
0.013394329
0.013330226
0.013329682
0.013311554
0.013243215
0.01327
0.013275739
0.013262504
0.013881811
0.01393419
0.014107721
0.014333533
0.01438302
0.014474691
0.014496442
0.01454626
0.014600707
0.014654204
0.014704774
0.014751307
0.014793052
0.014829543
0.014860645
0.014886533
0.014907535
0.014923813
0.014935087
0.013456887
0.013468661
0.01347751
0.013478722
0.013472777
0.01346001
0.013443303
0.013422867
0.01339751
0.013364608
0.013318002
0.013249437
0.013243054
0.013213769
0.013245786
0.013208278
0.013231034
0.013257622
0.013255992
0.014126167
0.014348007
0.014420079
0.01444191
0.014484221
0.014533829
0.014586155
0.014637018
0.014684725
0.014728332
0.014767261
0.014801218
0.014830203
0.014854464
0.01487435
0.014889969
0.014901008
0.013409517
0.013421296
0.013428945
0.013427592
0.01341824
0.013401748
0.013380455
0.013355219
0.013325016
0.013287129
0.013235129
0.013158333
0.013035049
0.013070333
0.013043726
0.012976545
0.013183736
0.013207207
0.013236652
0.014399151
0.014428282
0.014472007
0.014520844
0.01457094
0.014619261
0.01466434
0.01470533
0.014741769
0.014773477
0.014800551
0.014823309
0.014842127
0.014857066
0.014867829
0.01336024
0.013372295
0.013379031
0.013375154
0.013362083
0.013341412
0.013314971
0.013284366
0.013248598
0.013204434
0.0131444
0.013055199
0.012916951
0.012729769
0.012726297
0.012361217
0.012116633
0.0131373
0.013146278
0.013176932
0.013212489
0.014340214
0.01438064
0.014414534
0.014459486
0.014507163
0.014555103
0.01460106
0.014643734
0.014682365
0.014716563
0.014746221
0.014771508
0.014792824
0.014810575
0.014824787
0.014835219
0.013308268
0.013320858
0.013326992
0.013320664
0.013303578
0.013278215
0.013246265
0.013209906
0.013167762
0.013115566
0.013044247
0.012937568
0.012775022
0.012524561
0.012086453
0.011501859
0.011204242
0.010614922
0.01040234
0.012898844
0.013062146
0.013102684
0.013156791
0.01432761
0.014352656
0.014401161
0.014446533
0.014492855
0.014538742
0.0145825
0.014622966
0.014659446
0.014691588
0.014719324
0.014742884
0.014762775
0.014779429
0.01479286
0.014802902
0.013252852
0.013266156
0.013271966
0.013263287
0.013241976
0.013211458
0.013174019
0.013131581
0.013081966
0.013019604
0.012933426
0.012803501
0.012606512
0.012304281
0.011841274
0.011270257
0.010684978
0.010405059
0.01018335
0.010088039
0.012400602
0.012922211
0.013066706
0.013134145
0.014275038
0.014311139
0.014341951
0.014388294
0.014433166
0.014477984
0.014521922
0.01456363
0.014602058
0.014636555
0.014666774
0.014692658
0.014714494
0.014732946
0.014748443
0.014761015
0.014770574
0.013193359
0.013207409
0.013213085
0.013202198
0.013176627
0.013140734
0.013098103
0.013049101
0.012990556
0.01291549
0.012809308
0.012650362
0.012416176
0.01207208
0.011601969
0.011081147
0.010624235
0.010382116
0.010258675
0.010185591
0.010188717
0.010268272
0.01133749
0.011891693
0.012633976
0.013019505
0.014233149
0.014264118
0.01428443
0.014330464
0.014375527
0.014419333
0.014462576
0.014504679
0.014544475
0.014581014
0.014613661
0.014642051
0.014666114
0.014686183
0.014703141
0.014717352
0.014728885
0.014737589
0.013129358
0.013143988
0.013149579
0.013136691
0.013107187
0.013066454
0.013018399
0.012961993
0.012892398
0.012801174
0.012670897
0.012480325
0.012209343
0.011834715
0.01137211
0.010904941
0.010557485
0.010375783
0.010284729
0.010248388
0.010254709
0.010391561
0.010684486
0.011041131
0.01130201
0.011901694
0.012074612
0.011345267
0.014218231
0.014234436
0.014274591
0.014318766
0.014362462
0.014404952
0.014446649
0.014487026
0.014525041
0.014559823
0.014590732
0.01461736
0.014639623
0.014657912
0.014673171
0.014685804
0.014695812
0.014703503
0.01306066
0.01307549
0.013080879
0.013066262
0.01303343
0.012988364
0.012934428
0.012869377
0.01278694
0.012677168
0.012519317
0.012296683
0.011992669
0.011600601
0.011158911
0.010751232
0.010490095
0.010348863
0.010278765
0.010257922
0.010279274
0.010341121
0.010465508
0.010637787
0.010778839
0.010776255
0.01077512
0.010456815
0.010333687
0.014171831
0.014202521
0.014222443
0.014263453
0.01430654
0.014348833
0.014389974
0.014430197
0.014468957
0.014505322
0.014538469
0.014567731
0.014592643
0.014613092
0.014629498
0.01464274
0.014653222
0.014661393
0.014667836
0.012987209
0.013001705
0.013006645
0.012990612
0.012955203
0.012906227
0.012846165
0.01277141
0.012674646
0.012544375
0.012356918
0.012104863
0.011775948
0.011380207
0.010966164
0.01063032
0.010425362
0.010309172
0.010248801
0.010228087
0.010238749
0.010276075
0.010336445
0.010409612
0.010472595
0.010489724
0.010459809
0.010444517
0.010407684
0.010374621
0.010314764
0.014153986
0.01416544
0.014208952
0.014251206
0.014293396
0.014334426
0.014374323
0.014413178
0.014450448
0.014485296
0.014516923
0.014544611
0.014567807
0.014586339
0.014600607
0.014611319
0.01461921
0.014625146
0.014630035
0.012908952
0.012922524
0.012926691
0.012909579
0.012872331
0.012819905
0.012753555
0.012668412
0.012556279
0.012402943
0.012189375
0.011912653
0.011569464
0.011182495
0.010804915
0.010533766
0.010364692
0.010264032
0.010208101
0.010184298
0.010185006
0.010204807
0.010238938
0.010281595
0.010324179
0.010359399
0.010387423
0.010417486
0.010442276
0.01043108
0.010435901
0.010433756
0.01038166
0.014107531
0.014132657
0.014147732
0.014193933
0.014237405
0.014279016
0.014319061
0.014357889
0.014395522
0.014431453
0.014464925
0.014495137
0.014521289
0.014542701
0.014559105
0.014570831
0.014578477
0.014583294
0.014586543
0.014589525
0.012825702
0.012837798
0.012840876
0.012823023
0.012784579
0.012729204
0.012656586
0.012560902
0.012433105
0.012256059
0.012022137
0.011728501
0.011381618
0.011009469
0.010680425
0.010454254
0.010308802
0.010218103
0.010164554
0.010138027
0.010132013
0.010141815
0.01016395
0.01019532
0.010232643
0.010273801
0.010318895
0.010369886
0.010423126
0.01047403
0.010522033
0.010517935
0.010516677
0.010475913
0.014083349
0.014079095
0.014127059
0.014176806
0.014221608
0.014263083
0.01430252
0.01434051
0.014377115
0.014411886
0.014444137
0.014473033
0.014497643
0.014517121
0.014531076
0.014539716
0.014543783
0.014544987
0.014545067
0.01454577
0.012737073
0.012747255
0.012748986
0.012730664
0.012691565
0.01263373
0.01255518
0.012449326
0.01230475
0.012109904
0.011861114
0.011559097
0.011217527
0.010866542
0.010582883
0.010387732
0.010258267
0.010174183
0.01012201
0.010093403
0.010082922
0.010086668
0.010102132
0.010127693
0.010161953
0.01020419
0.010254656
0.010314812
0.010380685
0.010450959
0.010523708
0.010592192
0.010652523
0.010643296
0.010666272
0.010787681
0.014026689
0.014050042
0.014052421
0.014104135
0.014156973
0.014203346
0.01424526
0.014284519
0.014321972
0.014357796
0.014391631
0.014422835
0.014450498
0.014473507
0.014490819
0.014501908
0.0145069
0.014506809
0.014503845
0.014500282
0.014498337
0.012642537
0.012650511
0.012650677
0.012632018
0.012592663
0.012532827
0.012449041
0.012333376
0.012174467
0.011967962
0.011710811
0.011408166
0.011078179
0.010752473
0.01050498
0.010331873
0.010213599
0.010134082
0.010082591
0.010052303
0.01003864
0.010038393
0.010049684
0.010071583
0.010103427
0.010145025
0.010196927
0.010260516
0.01033148
0.010410779
0.010497344
0.010589323
0.010685985
0.010794681
0.010960155
0.011167076
0.012524626
0.013877328
0.013988556
0.013981064
0.014022771
0.014078528
0.014133987
0.014182269
0.014225182
0.01426473
0.014302011
0.014337364
0.014370528
0.01440088