/*--------------------------------*- C++ -*----------------------------------*\
  =========                 |
  \\      /  F ield         | OpenFOAM: The Open Source CFD Toolbox
   \\    /   O peration     | Website:  https://openfoam.org
    \\  /    A nd           | Version:  8
     \\/     M anipulation  |
\*---------------------------------------------------------------------------*/
FoamFile
{
    version     2.0;
    format      ascii;
    class       volScalarField;
    location    "7200/vegetation";
    object      T;
}
// * * * * * * * * * * * * * * * * * * * * * * * * * * * * * * * * * * * * * //

dimensions      [0 0 0 1 0 0 0];

internalField   uniform 297;

boundaryField
{
    left
    {
        type            mapped;
        field           T;
        setAverage      0;
        average         0;
        interpolationScheme cell;
        value           nonuniform List<scalar> 
690
(
300.33632
300.31381
300.26183
300.219
300.1899
300.17337
300.16591
300.16676
300.17307
300.18636
300.20438
300.22735
300.25608
300.29213
300.33827
300.39889
300.4785
300.59837
300.74768
300.93429
301.15263
301.39328
301.63135
301.87044
302.09916
302.31735
302.52203
302.71194
302.88808
303.05738
303.22102
303.37771
303.52665
303.66923
303.80622
303.93578
304.05757
304.17213
304.2799
304.38143
304.47767
304.56884
304.65565
304.74195
304.82847
304.91542
305.0027
305.09017
305.17744
305.26485
305.3515
305.43915
305.52683
305.61502
305.70451
305.79684
305.89194
305.99828
306.10097
306.20883
306.32294
306.44511
306.57667
306.71987
306.87358
307.03562
307.19088
307.35805
307.46311
300.33568
300.29836
300.26514
300.24169
300.2283
300.22366
300.22587
300.23399
300.24771
300.26637
300.28989
300.31883
300.35444
300.39889
300.45556
300.52979
300.63358
300.76301
300.92612
301.11992
301.33631
301.56551
301.78852
302.0143
302.23518
302.44954
302.65338
302.84533
303.02594
303.19715
303.36023
303.51547
303.6629
303.80256
303.93392
304.05657
304.17153
304.27937
304.38033
304.47486
304.56372
304.64764
304.727
304.80846
304.89122
304.97486
305.05921
305.14431
305.23029
305.32581
305.40646
305.49723
305.59805
305.68558
305.79133
305.89203
305.9972
306.1067
306.22193
306.34381
306.47324
306.61143
306.75827
306.91284
307.07253
307.23183
307.37529
307.51372
307.59808
300.33158
300.30493
300.28685
300.27743
300.27577
300.27999
300.29012
300.30511
300.32469
300.34891
300.37817
300.4134
300.45617
300.50894
300.57529
300.65818
300.77585
300.9142
301.08138
301.27319
301.48257
301.70171
301.92201
302.13313
302.35036
302.56288
302.76691
302.96114
303.14595
303.32273
303.49267
303.65597
303.81164
303.95845
304.09564
304.22342
304.34196
304.45171
304.55329
304.64744
304.73509
304.81742
304.89615
304.97398
305.05231
305.13228
305.22192
305.29757
305.39193
305.4734
305.57359
305.66146
305.76796
305.87009
305.9747
306.08262
306.19434
306.31057
306.4321
306.55963
306.69368
306.83419
306.98078
307.13193
307.28437
307.43209
307.55984
307.67039
307.74472
300.3338
300.31998
300.3149
300.31697
300.3248
300.33771
300.35496
300.3763
300.4018
300.43184
300.46712
300.50878
300.55856
300.6189
300.69356
300.79194
300.9078
301.04863
301.214
301.40031
301.60197
301.81261
302.0195
302.23559
302.45091
302.6623
302.86739
303.06496
303.25529
303.43971
303.61954
303.79497
303.96423
304.12444
304.27392
304.4127
304.54081
304.6586
304.76696
304.86703
304.96014
305.04777
305.13149
305.21317
305.29412
305.37537
305.45819
305.55092
305.63065
305.72845
305.82124
305.917
306.01444
306.11419
306.21679
306.32293
306.43336
306.54872
306.66943
306.79563
306.92703
307.06288
307.20225
307.34378
307.48473
307.61957
307.73341
307.82973
307.89255
300.34067
300.33998
300.34602
300.35869
300.37558
300.39614
300.42013
300.44763
300.47899
300.51479
300.5559
300.60357
300.65953
300.7261
300.80451
300.9099
301.02805
301.16806
301.32947
301.50944
301.70365
301.90797
302.11846
302.33269
302.53865
302.74951
302.95624
303.15808
303.35516
303.54889
303.74055
303.93035
304.11606
304.29336
304.45942
304.61387
304.75658
304.88756
305.00768
305.1183
305.221
305.31743
305.40911
305.49757
305.58407
305.66963
305.76293
305.84859
305.9273
306.02243
306.11144
306.20118
306.29242
306.38572
306.48184
306.58165
306.68591
306.79517
306.90958
307.02886
307.15222
307.27878
307.40809
307.53943
307.67007
307.79407
307.89651
307.9819
308.03698
300.35151
300.36278
300.38092
300.40313
300.42823
300.45588
300.48614
300.51939
300.55616
300.59721
300.64352
300.69639
300.75747
300.82877
300.91921
301.02012
301.13909
301.27735
301.43432
301.60767
301.79462
301.99306
302.2001
302.40402
302.62391
302.82701
303.03571
303.24204
303.44665
303.65057
303.8552
304.06052
304.26396
304.46028
304.64534
304.81794
304.97763
305.12407
305.25799
305.38083
305.49427
305.59995
305.69936
305.79385
305.88458
305.97249
306.05838
306.1427
306.23416
306.30931
306.39981
306.48344
306.5675
306.65318
306.74138
306.833
306.92875
307.02913
307.13427
307.2439
307.35754
307.4749
307.59578
307.71882
307.84029
307.95424
308.04679
308.12391
308.17378
300.36506
300.39019
300.41956
300.45091
300.48357
300.51759
300.55341
300.59166
300.63309
300.67861
300.7293
300.78648
300.85175
300.92734
301.02063
301.12335
301.24226
301.37813
301.53035
301.69743
301.87824
302.07162
302.27477
302.48313
302.68668
302.89773
303.10844
303.31923
303.5311
303.74514
303.96269
304.18351
304.40452
304.61977
304.82383
305.01431
305.19018
305.35095
305.49731
305.63074
305.75297
305.86567
305.97035
306.06837
306.16093
306.24912
306.33387
306.41595
306.49591
306.57462
306.6525
306.73771
306.81609
306.89515
306.9762
307.06014
307.14771
307.23946
307.33573
307.4366
307.54205
307.65192
307.76538
307.88029
307.99306
308.09837
308.18321
308.25424
308.30031
300.38245
300.42244
300.46316
300.50312
300.54245
300.58185
300.6222
300.66447
300.70964
300.75874
300.8129
300.87345
300.94191
301.01836
301.11585
301.21945
301.33761
301.47081
301.61883
301.78121
301.95749
302.14651
302.34577
302.55165
302.75339
302.9722
303.17705
303.3918
303.60997
303.83304
304.0622
304.29699
304.53373
304.76561
304.98595
305.19108
305.3795
305.55089
305.70613
305.84684
305.97481
306.09181
306.19944
306.29916
306.3923
306.48007
306.56354
306.64363
306.72111
306.79651
306.87075
306.94433
307.02546
307.10012
307.17575
307.25377
307.33496
307.42003
307.50953
307.60379
307.70289
307.80643
307.91324
308.02114
308.12679
308.22539
308.3044
308.37088
308.40613
300.40464
300.46198
300.51386
300.56122
300.60575
300.64913
300.6928
300.73798
300.78581
300.83742
300.894
300.95685
301.0273
301.1056
301.20438
301.30812
301.42524
301.55631
301.70153
301.86078
302.03365
302.21905
302.41481
302.61796
302.8255
303.03702
303.24356
303.46139
303.68433
303.91418
304.15221
304.39782
304.64662
304.89069
305.12226
305.33684
305.53284
305.71037
305.87067
306.01553
306.14683
306.26636
306.37578
306.47659
306.57018
306.65784
306.74068
306.81967
306.89565
306.96934
307.04931
307.1123
307.18302
307.26167
307.33437
307.40853
307.48557
307.56627
307.6513
307.74108
307.83563
307.93444
308.03627
308.13899
308.23955
308.33347
308.4163
308.47179
308.50534
300.43948
300.51457
300.57504
300.6271
300.67461
300.72018
300.7656
300.81229
300.86148
300.91436
300.97214
301.03609
301.10751
301.18651
301.28566
301.38918
301.50549
301.63528
301.77886
301.9362
302.10682
302.28966
302.48285
302.68399
302.89099
303.09432
303.3093
303.52873
303.7542
303.98762
304.23045
304.48192
304.73704
304.98703
305.22356
305.44209
305.64109
305.82103
305.98355
306.13052
306.26373
306.38488
306.49559
306.59736
306.69158
306.77954
306.86239
306.94112
307.0166
307.08956
307.16054
307.23049
307.3077
307.36957
307.44823
307.52056
307.5956
307.67418
307.75698
307.84443
307.93654
308.03276
308.13181
308.23165
308.32944
308.42087
308.50151
308.55533
308.58803
)
;
    }
    right
    {
        type            mapped;
        field           T;
        setAverage      0;
        average         0;
        interpolationScheme cell;
        value           nonuniform List<scalar> 
690
(
300.32715
300.26624
300.21944
300.19042
300.17548
300.17036
300.17199
300.17875
300.19046
300.20492
300.22164
300.24027
300.26068
300.28286
300.30708
300.33386
300.36428
300.39904
300.43897
300.48424
300.53488
300.59104
300.6578
300.72479
300.79833
300.8784
300.96414
301.05381
301.14546
301.23735
301.32763
301.41501
301.49874
301.57859
301.65477
301.72776
301.79811
301.8664
301.93312
301.9985
302.06154
302.12203
302.18012
302.23585
302.28933
302.34086
302.39083
302.43962
302.48752
302.53481
302.5817
302.6283
302.67472
302.72122
302.76812
302.81575
302.86447
302.91483
302.96735
303.02284
303.08209
303.14772
303.21931
303.29446
303.38193
303.49114
303.58648
303.74544
303.78024
300.31307
300.27389
300.24788
300.23389
300.22946
300.23183
300.23955
300.25168
300.26706
300.28491
300.3048
300.32648
300.34992
300.37527
300.40303
300.43408
300.46941
300.50956
300.55484
300.60522
300.66035
300.71861
300.79088
300.86027
300.93447
301.0133
301.09604
301.1815
301.26821
301.35465
301.43947
301.5216
301.60039
301.67572
301.74788
301.81734
301.88465
301.95033
302.01455
302.077
302.1368
302.19363
302.24802
302.2998
302.34913
302.39634
302.44188
302.48612
302.52937
302.57186
302.61383
302.65558
302.69754
302.74008
302.78371
302.82905
302.87668
302.92729
302.98156
303.04017
303.10405
303.17619
303.25635
303.33812
303.43645
303.5454
303.65791
303.77623
303.85803
300.3177
300.29637
300.2854
300.28307
300.28694
300.29634
300.30982
300.32653
300.34583
300.36727
300.39057
300.41558
300.44237
300.47117
300.50253
300.53728
300.57621
300.61971
300.66785
300.72051
300.77726
300.83647
300.90912
300.9782
301.05122
301.12791
301.20768
301.28969
301.37282
301.4558
301.53747
301.617
301.69396
301.76837
301.84061
301.91111
301.98031
302.0483
302.11463
302.17828
302.23802
302.29387
302.34619
302.39553
302.44223
302.48678
302.52969
302.57137
302.6121
302.6521
302.69167
302.73133
302.77174
302.8137
302.8581
302.90584
302.95766
303.01424
303.07613
303.14379
303.21789
303.29899
303.38056
303.47806
303.58372
303.69636
303.81091
303.91861
303.9919
300.33049
300.32386
300.32527
300.33253
300.34474
300.36062
300.37946
300.40071
300.424
300.44906
300.47575
300.50404
300.53401
300.56596
300.60036
300.63789
300.67915
300.72444
300.77376
300.82694
300.88359
300.94224
301.01363
301.08124
301.15238
301.22674
301.30379
301.38279
301.4628
301.5428
301.62198
301.6997
301.77567
301.84994
301.92287
301.99483
302.06607
302.13645
302.20467
302.2691
302.3293
302.38601
302.43917
302.48924
302.53697
302.58284
302.62711
302.66995
302.71155
302.75226
302.79267
302.83358
302.87587
302.92053
302.96853
303.02082
303.07817
303.14113
303.21008
303.28528
303.3666
303.4475
303.54317
303.64623
303.75588
303.86976
303.98225
304.0821
304.14552
300.34792
300.35385
300.36649
300.38305
300.40265
300.42465
300.44862
300.47428
300.50147
300.53008
300.56007
300.59148
300.62445
300.65921
300.69616
300.73578
300.77852
300.8246
300.87405
300.92676
300.98255
301.04168
301.1015
301.17475
301.24359
301.31541
301.38971
301.46584
301.54303
301.62049
301.69757
301.7738
301.84901
301.92328
301.9969
302.07014
302.14299
302.21476
302.28373
302.34893
302.41052
302.46871
302.52414
302.57704
302.62756
302.67631
302.72341
302.76905
302.81361
302.85769
302.90204
302.94742
302.99469
303.04471
303.09834
303.15635
303.21935
303.28778
303.36192
303.44159
303.52809
303.61278
303.71211
303.81789
303.92889
304.04219
304.15162
304.2454
304.3017
300.36787
300.38705
300.40994
300.43495
300.46144
300.4891
300.51782
300.54758
300.57838
300.61027
300.6433
300.67756
300.71318
300.75037
300.78939
300.83057
300.87422
300.92054
300.9696
301.02138
301.07585
301.13296
301.19354
301.26231
301.32885
301.39821
301.46998
301.54358
301.61834
301.69361
301.76883
301.84367
301.91799
301.99187
302.0655
302.13901
302.2122
302.28426
302.35398
302.42045
302.48372
302.5442
302.60233
302.65832
302.71231
302.76473
302.81585
302.86598
302.91559
302.96519
303.01536
303.06672
303.11998
303.17584
303.235
303.29808
303.36558
303.43749
303.51564
303.59835
303.67933
303.77427
303.87543
303.98223
304.09317
304.20504
304.31137
304.40029
304.45149
300.39128
300.4233
300.45624
300.48917
300.52193
300.55465
300.58756
300.6209
300.65485
300.6896
300.72525
300.76194
300.79979
300.83895
300.8796
300.92195
300.96621
301.01254
301.06108
301.11191
301.16516
301.22093
301.27933
301.3412
301.41114
301.47853
301.54829
301.61989
301.69269
301.76606
301.83955
301.91287
301.98592
302.05874
302.13147
302.20412
302.27647
302.34794
302.41777
302.48539
302.55068
302.6138
302.67492
302.73429
302.79221
302.84912
302.90533
302.96109
303.01667
303.07239
303.1286
303.18577
303.24443
303.30518
303.36865
303.43545
303.50612
303.58114
303.66048
303.73763
303.82797
303.92417
304.02606
304.13297
304.24324
304.35339
304.45672
304.54159
304.58904
300.41843
300.46384
300.5066
300.54677
300.58498
300.62191
300.65823
300.69446
300.73096
300.76799
300.80574
300.84435
300.88393
300.92459
300.96646
301.00965
301.05433
301.10064
301.14875
301.19884
301.25114
301.30586
301.36323
301.42334
301.48692
301.55842
301.62689
301.6971
301.76835
301.84002
301.91172
301.98327
302.05459
302.12576
302.19684
302.26786
302.3387
302.40906
302.47856
302.54686
302.61383
302.67947
302.74381
302.80703
302.86943
302.93121
302.99264
303.05385
303.11491
303.17591
303.23706
303.2987
303.36131
303.42546
303.49179
303.56097
303.63359
303.70236
303.79102
303.8691
303.96031
304.05707
304.15918
304.26582
304.37512
304.48338
304.5839
304.66543
304.71014
300.45105
300.51089
300.56278
300.60902
300.65142
300.69142
300.73018
300.76846
300.80674
300.84537
300.88457
300.92449
300.96525
301.00693
301.0496
301.09336
301.13832
301.18463
301.23249
301.28216
301.33391
301.38806
301.44489
301.50461
301.56707
301.6309
301.70622
301.77553
301.84549
301.91551
301.98535
302.05498
302.1244
302.19366
302.26286
302.33208
302.40136
302.47065
302.53979
302.60863
302.67701
302.74485
302.81214
302.87892
302.94528
303.0112
303.0768
303.1421
303.20702
303.27157
303.3359
303.4003
303.46521
303.53126
303.59915
303.66959
303.74325
303.82026
303.89433
303.98069
304.07226
304.16915
304.27109
304.37714
304.48529
304.59176
304.68989
304.76882
304.81162
300.49472
300.56859
300.62726
300.6773
300.72203
300.76364
300.80366
300.84298
300.88216
300.92159
300.9615
301.00207
301.0434
301.08557
301.12863
301.17267
301.21778
301.26412
301.31192
301.36144
301.41303
301.46705
301.5238
301.58348
301.64599
301.71179
301.78489
301.8537
301.92261
301.99114
302.05941
302.12749
302.1954
302.2632
302.33102
302.39901
302.46735
302.5361
302.60521
302.67456
302.74396
302.8133
302.8825
302.95148
303.02004
303.08806
303.15565
303.22285
303.2895
303.35561
303.42129
303.48674
303.55244
303.6191
303.68744
303.7583
303.83221
303.90938
303.9835
304.06987
304.16133
304.2579
304.35931
304.46461
304.57173
304.67682
304.77324
304.85044
304.89219
)
;
    }
    back
    {
        type            mapped;
        field           T;
        setAverage      0;
        average         0;
        interpolationScheme cell;
        value           nonuniform List<scalar> 
590
(
307.54675
307.6811
307.82757
307.97535
308.11972
308.25643
308.38283
308.50484
308.60382
308.68624
307.56349
307.69852
307.84502
307.99256
308.13622
308.27224
308.39821
308.51987
308.61858
308.7009
307.58747
307.72343
307.8698
308.01663
308.15895
308.30206
308.4271
308.53973
308.63781
308.71987
307.62156
307.75782
307.90315
308.0563
308.19659
308.32976
308.45321
308.56447
308.66153
308.74311
307.66925
307.80434
307.95509
308.09657
308.23392
308.36445
308.47725
308.58643
308.68203
308.76295
307.73401
307.86567
308.0114
308.14805
308.27285
308.39921
308.51643
308.63052
308.72402
308.80394
307.81942
307.94461
308.08319
308.20485
308.33909
308.45919
308.57113
308.66552
308.76457
308.84322
307.92849
308.04334
308.1639
308.28428
308.40918
308.52111
308.62629
308.72382
308.81119
308.88825
308.06076
308.16141
308.26942
308.37762
308.49153
308.59354
308.69056
308.78137
308.86469
308.93989
308.20993
308.30263
308.39597
308.49054
308.58336
308.67422
308.76217
308.84615
308.92499
308.99811
308.37289
308.43444
308.52205
308.60206
308.68203
308.76159
308.84024
308.91719
308.99139
309.06236
308.51258
308.57994
308.64709
308.71495
308.78341
308.8526
308.92255
308.99285
309.06263
309.13157
308.65419
308.70629
308.76477
308.82369
308.88313
308.94386
309.00652
309.07109
309.137
309.20416
308.76833
308.81696
308.87032
308.92392
308.97738
309.03216
309.08943
309.1496
309.21246
309.27823
308.86111
308.90958
308.96142
309.01283
309.06336
309.11483
309.16879
309.22609
309.28685
309.3517
308.93433
308.98423
309.03723
309.08892
309.13917
309.18977
309.24245
309.29836
309.35802
309.4224
308.98991
309.0418
309.09741
309.15135
309.20345
309.25522
309.30838
309.36429
309.42374
309.48805
309.0278
309.08238
309.1416
309.19926
309.25482
309.30938
309.36447
309.42152
309.48154
309.54609
309.04598
309.10523
309.16891
309.23126
309.29138
309.3499
309.40801
309.46717
309.52845
309.59347
309.04747
309.1102
309.17799
309.24515
309.31029
309.37348
309.43528
309.49734
309.56055
309.62641
309.02899
309.09594
309.16737
309.23833
309.30758
309.37507
309.44118
309.50681
309.57262
309.63983
308.98978
309.06063
309.135
309.2088
309.28097
309.35234
309.42237
309.49137
309.55981
309.62859
308.92347
309.0027
309.07848
309.15347
309.22661
309.29914
309.37153
309.4433
309.5144
309.58511
308.8478
308.91702
308.98972
309.07213
309.14492
309.21643
309.28806
309.35958
309.43098
309.50229
308.75747
308.82206
308.89079
308.9602
309.0377
309.10698
309.17556
309.24429
309.3137
309.38409
308.65504
308.71379
308.77736
308.84131
308.90491
308.9678
309.03073
309.09427
309.1595
309.22746
308.54264
308.59487
308.65291
308.7102
308.76606
308.82136
308.87704
308.93402
308.99381
309.05842
308.42131
308.46652
308.51855
308.56837
308.61552
308.66218
308.7096
308.75902
308.8125
308.87313
308.29057
308.32908
308.37445
308.41636
308.45488
308.4929
308.53191
308.57346
308.62022
308.67653
308.1513
308.18314
308.22134
308.25522
308.28589
308.31591
308.34695
308.38084
308.42097
308.47297
308.00366
308.0295
308.06038
308.08666
308.1106
308.1338
308.15722
308.18393
308.21798
308.26625
307.84757
307.86849
307.89239
307.91201
307.92972
307.94705
307.96283
307.98301
308.01216
308.05835
307.68915
307.7075
307.72521
307.73822
307.74824
307.7492
307.76119
307.77612
307.80243
307.84838
307.51251
307.52993
307.54285
307.54985
307.55219
307.55297
307.54809
307.55938
307.58631
307.63375
307.31743
307.33427
307.345
307.34844
307.34586
307.34154
307.34047
307.34809
307.36308
307.41023
307.08303
307.10487
307.12049
307.12668
307.12479
307.1202
307.11863
307.12561
307.1473
307.19301
306.74816
306.81441
306.85361
306.87519
306.88319
306.8853
306.8884
306.89844
306.92162
306.96705
306.27973
306.44031
306.53201
306.58702
306.61704
306.63457
306.64873
306.66639
306.69419
306.7408
305.73265
305.99559
306.16516
306.26524
306.32832
306.36918
306.39987
306.42937
306.46515
306.51529
305.28116
305.57129
305.78708
305.92807
306.02574
306.0932
306.14468
306.18982
306.23595
306.29097
305.05764
305.24646
305.44587
305.60036
305.72265
305.81587
305.889
305.95061
306.00795
306.06849
304.86354
304.99889
305.15037
305.299
305.43417
305.54668
305.6385
305.71541
305.78358
305.84958
304.69028
304.78247
304.89826
305.03205
305.16992
305.29409
305.3998
305.48923
305.56672
305.63761
304.53094
304.59465
304.68382
304.80232
304.93613
305.06519
305.17972
305.27826
305.36301
305.43786
304.36594
304.42644
304.50492
304.60897
304.73538
304.86476
304.9841
305.08882
305.17894
305.25694
304.249
304.30256
304.35807
304.44912
304.56738
304.69492
304.81682
304.92587
305.02014
305.10087
304.18811
304.19894
304.23969
304.31924
304.43014
304.55571
304.67949
304.79213
304.88985
304.97272
304.07085
304.10268
304.1437
304.21534
304.32124
304.44617
304.57225
304.68837
304.78914
304.87342
304.02507
304.03664
304.06788
304.13496
304.23914
304.36565
304.4949
304.61391
304.71783
304.80303
304.00406
303.98545
304.00291
304.07702
304.17738
304.30851
304.44923
304.57179
304.67707
304.76278
303.9378
303.93976
303.96267
304.03705
304.15288
304.29003
304.42721
304.55208
304.65845
304.7442
303.95559
303.91028
303.94177
304.02853
304.15765
304.30305
304.4446
304.57157
304.67863
304.76406
303.87386
303.88263
303.93856
304.04798
304.19241
304.34526
304.48994
304.61798
304.72514
304.80998
303.86811
303.87701
303.95853
304.09155
304.24788
304.4053
304.55119
304.67912
304.78573
304.86973
303.85938
303.89042
303.99843
304.14803
304.31097
304.46985
304.61521
304.7421
304.84766
304.93066
303.87068
303.92001
304.04701
304.20533
304.37022
304.5282
304.67191
304.79721
304.9015
304.98351
303.89476
303.95656
304.09295
304.25381
304.41752
304.57324
304.71482
304.83844
304.94148
305.02262
303.91512
303.9884
304.1264
304.28551
304.44638
304.59954
304.7392
304.86147
304.96354
305.04388
303.92167
304.00235
304.13859
304.29441
304.45262
304.60416
304.74294
304.86467
304.96617
305.04621
)
;
    }
    front
    {
        type            mapped;
        field           T;
        setAverage      0;
        average         0;
        interpolationScheme cell;
        value           uniform 300.35;
    }
    bottom
    {
        type            mapped;
        field           T;
        setAverage      0;
        average         0;
        interpolationScheme cell;
        value           nonuniform List<scalar> 
11248
(
300.33632
300.31381
300.26183
300.219
300.1899
300.17337
300.16591
300.16676
300.17307
300.18636
300.20438
300.22735
300.25608
300.29213
300.33827
300.39889
300.4785
300.59837
300.74769
300.9343
301.15264
301.3933
301.63136
301.87045
302.09917
302.31736
302.52204
302.71196
302.88809
303.05739
303.22103
303.37772
303.52666
303.66924
303.80623
303.93579
304.05758
304.17214
304.27991
304.38144
304.47768
304.56885
304.65566
304.74196
304.82848
304.91543
305.00271
305.09018
305.17745
305.26485
305.35151
305.43915
305.52684
305.61503
305.70452
305.79685
305.89195
305.9983
306.10099
306.20885
306.32296
306.44513
306.57669
306.71989
306.87359
307.03563
307.19089
307.35806
307.46312
300.35065
300.31222
300.2624
300.22012
300.19119
300.17478
300.16753
300.16853
300.17512
300.1887
300.207
300.23019
300.25894
300.29464
300.33991
300.3988
300.47648
300.59512
300.74695
300.93743
301.15557
301.3901
301.62156
301.85512
302.08061
302.29637
302.49972
302.68956
302.8689
303.04067
303.20466
303.36101
303.50974
303.65152
303.78707
303.91569
304.03681
304.15007
304.25633
304.35655
304.45216
304.54435
304.63397
304.72302
304.8127
304.90278
304.99295
305.08297
305.17256
305.26208
305.35093
305.44055
305.52993
305.61943
305.71792
305.80246
305.89719
306.0026
306.1046
306.21208
306.32613
306.44909
306.58153
306.72573
306.88157
307.04606
307.20356
307.37329
307.47982
300.3521
300.31415
300.26594
300.22347
300.19425
300.17768
300.17048
300.17166
300.17853
300.19254
300.21137
300.23506
300.26425
300.30002
300.34519
300.40315
300.48306
300.60598
300.77377
300.97626
301.1943
301.4238
301.64885
301.85823
302.06952
302.27481
302.47135
302.65898
302.83743
303.00744
303.16945
303.3237
303.47045
303.60994
303.74257
303.86841
303.98725
304.09909
304.20435
304.30478
304.40252
304.49957
304.59595
304.69218
304.78758
304.88248
304.97642
305.06924
305.16088
305.25189
305.34228
305.4407
305.53097
305.61403
305.70635
305.80786
305.90323
306.00213
306.10417
306.21252
306.32727
306.45093
306.5855
306.73261
306.89197
307.06033
307.22139
307.39474
307.50386
300.35383
300.31629
300.27216
300.22908
300.19924
300.18229
300.17507
300.17645
300.18372
300.19844
300.21825
300.24297
300.27363
300.3108
300.35917
300.42065
300.5146
300.57203
300.75045
300.97425
301.31998
301.54569
301.7403
301.92951
302.10621
302.29135
302.47172
302.64518
302.81208
302.97379
303.12921
303.27811
303.42044
303.55622
303.68553
303.80843
303.92515
304.03602
304.14131
304.24543
304.34966
304.45231
304.55409
304.65519
304.75548
304.85443
304.95172
305.05553
305.14147
305.23527
305.33587
305.42911
305.52158
305.60743
305.7094
305.80443
305.90194
306.00291
306.1073
306.2172
306.33435
306.46077
306.5985
306.74913
306.91231
307.08465
307.24927
307.42624
307.53795
300.35539
300.31972
300.27997
300.23666
300.20617
300.18877
300.18161
300.18331
300.19126
300.20712
300.22882
300.25548
300.29007
300.33235
300.39401
300.40902
300.50788
300.69139
300.90473
301.13537
301.39684
301.63942
301.83346
302.08388
302.23525
302.37811
302.52461
302.66785
302.81397
302.95804
303.09933
303.23795
303.37252
303.50241
303.62736
303.74739
303.86276
303.97378
304.08071
304.18763
304.29465
304.40054
304.50606
304.6109
304.71486
304.8171
304.91768
305.0249
305.12191
305.21938
305.31465
305.4123
305.50724
305.60473
305.70089
305.80024
305.90303
306.00915
306.11963
306.23486
306.35687
306.48762
306.62918
306.78337
306.94928
307.12526
307.29245
307.47204
307.58532
300.35604
300.32431
300.28907
300.24606
300.21504
300.19726
300.19044
300.1927
300.20181
300.21949
300.24492
300.27524
300.3213
300.3277
300.39725
300.51343
300.72776
301.41697
301.90459
301.70114
302.00141
302.12852
302.23844
302.33977
302.47001
302.5837
302.75451
302.85672
302.9737
303.09479
303.21614
303.33835
303.45933
303.5781
303.69428
303.80786
303.91899
304.02748
304.13482
304.24301
304.35888
304.45902
304.56657
304.68124
304.7865
304.88998
304.99325
305.09314
305.19481
305.29302
305.39492
305.49309
305.59568
305.69984
305.80791
305.91896
306.03368
306.15249
306.27509
306.40347
306.53953
306.68519
306.84171
307.01014
307.17958
307.36373
307.53605
307.64093
300.35598
300.32916
300.29914
300.2571
300.22582
300.20784
300.20191
300.20512
300.21617
300.2372
300.27065
300.27091
300.32075
300.41311
300.54772
301.20991
303.10861
302.84703
302.65056
302.75191
302.79225
302.83997
302.97091
303.02973
303.12713
303.22125
303.32689
303.43539
303.5536
303.6564
303.76675
303.88429
303.99353
304.10171
304.20894
304.31724
304.42685
304.53563
304.6443
304.75133
304.85738
304.96299
305.06605
305.17264
305.27498
305.38221
305.48995
305.60237
305.71723
305.83508
305.95669
306.08202
306.21107
306.34337
306.47971
306.62241
306.77251
306.92398
307.09284
307.27765
307.44407
307.61423
307.72487
300.35525
300.33374
300.30928
300.26929
300.23831
300.22046
300.21633
300.22134
300.23565
300.26648
300.26692
300.32422
300.48627
300.75598
303.63042
303.15006
303.08552
303.13451
303.17951
303.25787
303.34866
303.44568
303.54609
303.64948
303.75554
303.86353
303.97203
304.0801
304.18735
304.29454
304.40218
304.51001
304.61809
304.72563
304.83323
304.94133
305.04977
305.16039
305.27171
305.38753
305.5062
305.62828
305.75459
305.88528
306.02037
306.15911
306.30169
306.4391
306.59498
306.74569
306.90041
307.05294
307.22059
307.39374
307.56338
307.72764
307.8324
300.35404
300.33767
300.31875
300.28185
300.25213
300.23468
300.23387
300.24341
300.23702
300.26373
300.34597
300.5371
303.3273
303.24961
303.274
303.31712
303.39569
303.48413
303.57351
303.66765
303.76585
303.86777
303.97217
304.07734
304.18271
304.28856
304.39527
304.50279
304.6108
304.71918
304.82819
304.93905
305.0517
305.16763
305.288
305.41315
305.54292
305.67839
305.81975
305.96634
306.11146
306.27686
306.42944
306.59102
306.75144
306.91001
307.06794
307.2277
307.39096
307.55659
307.71684
307.86923
307.96373
300.35282
300.34061
300.32671
300.29384
300.26616
300.25229
300.25349
300.24655
300.2654
300.30648
301.18095
303.76748
303.44127
303.39521
303.38388
303.45267
303.54213
303.66198
303.73857
303.82502
303.92009
304.0132
304.10898
304.20721
304.30627
304.40747
304.51157
304.61804
304.7267
304.83834
304.95366
305.07346
305.19825
305.32941
305.46682
305.61122
305.76366
305.91607
306.08454
306.26082
306.44268
306.62563
306.80465
306.97625
307.13976
307.29712
307.45155
307.60516
307.75695
307.90086
308.0336
308.11367
300.35166
300.34261
300.33255
300.30375
300.27983
300.27213
300.27768
300.30082
300.29859
300.51538
304.03966
303.69718
303.54067
303.50362
303.49112
303.58717
303.67375
303.7479
303.81799
303.89773
303.99251
304.11309
304.19283
304.28141
304.37096
304.46238
304.5602
304.66123
304.76826
304.88205
305.00296
305.13031
305.26512
305.40895
305.56082
305.72331
305.88948
306.07527
306.27324
306.48062
306.69095
306.89586
307.08832
307.26505
307.42661
307.57619
307.71758
307.85315
307.9825
308.10193
308.208
308.2716
300.35059
300.34373
300.33538
300.31012
300.29304
300.29304
300.30642
300.34387
300.34673
300.41378
304.35603
303.94425
303.80755
303.72547
303.63192
303.58883
303.57708
303.70081
303.80905
303.88831
303.99108
304.05778
304.1254
304.19794
304.27796
304.37935
304.49545
304.53951
304.62381
304.78186
304.87796
304.99049
305.11894
305.24816
305.39006
305.53618
305.70418
305.8893
306.09219
306.31279
306.54804
306.78938
307.02435
307.24196
307.43591
307.60525
307.75296
307.88378
308.00208
308.11068
308.21062
308.30046
308.38564
308.43351
300.34708
300.34659
300.33459
300.31414
300.30853
300.3155
300.34419
300.4046
300.48899
300.50041
300.64031
304.35614
304.04286
303.94039
303.87263
303.82668
303.73678
303.68102
303.67624
303.75663
303.89904
303.98975
304.09875
304.17762
304.2455
304.34569
304.39381
304.63937
304.89884
304.8953
304.84432
304.92142
305.02337
305.13211
305.26213
305.48753
305.61702
305.77094
305.95449
306.16601
306.40364
306.66313
306.93214
307.19385
307.43269
307.63993
307.81412
307.95859
308.07933
308.18202
308.27105
308.34955
308.42074
308.48267
308.53339
308.57455
300.34709
300.34702
300.33135
300.32008
300.32455
300.34418
300.40413
300.50828
300.6295
300.65556
300.82335
301.33168
304.64933
304.30061
304.18864
304.09552
304.04702
303.97257
303.91015
303.83777
303.78166
303.75282
303.79503
303.89217
304.00263
304.09689
304.19433
304.33779
304.43428
304.55715
304.99991
305.9451
305.493
305.28222
305.45234
305.5632
305.68687
305.95493
306.12233
306.33277
306.57879
306.8514
307.13539
307.4096
307.65464
307.86051
308.02963
308.16697
308.27606
308.36615
308.441
308.50385
308.56585
308.60322
308.64938
308.67892
308.69654
300.34687
300.34489
300.32931
300.32863
300.34508
300.3925
300.51485
300.6811
300.87195
300.91734
301.17416
301.6035
304.8199
304.501
304.42405
304.36656
304.30434
304.2161
304.15181
304.08316
304.1113
304.04969
303.96079
303.92869
303.91992