/*--------------------------------*- C++ -*----------------------------------*\
  =========                 |
  \\      /  F ield         | OpenFOAM: The Open Source CFD Toolbox
   \\    /   O peration     | Website:  https://openfoam.org
    \\  /    A nd           | Version:  8
     \\/     M anipulation  |
\*---------------------------------------------------------------------------*/
FoamFile
{
    version     2.0;
    format      ascii;
    class       volScalarField;
    location    "3600/buildings";
    object      pc;
}
// * * * * * * * * * * * * * * * * * * * * * * * * * * * * * * * * * * * * * //

dimensions      [1 -1 -2 0 0 0 0];

internalField   nonuniform List<scalar> 
3640
(
-9370349.3
-9656383.8
-9898874.6
-9710071
-9780297.5
-9736257.8
-9478222.3
-9262617.4
-9749244.8
-9769137.5
-9506485.4
-9429819.6
-9637463.5
-9615631.7
-9606569.9
-9372654.2
-9797463.1
-9937659.5
-9756674.2
-9570060.9
-9810531.3
-9811597.9
-9807332
-9472649.1
-9516046.4
-9492694.6
-9536401.2
-9534788.7
-9587112.6
-9522963.5
-9514260
-9539688.7
-9515322.7
-9491310.3
-9493507
-9489483.5
-9517479.5
-9514716.6
-9531324.3
-9700496.2
-9223649
-9557159.8
-9525985.4
-9552170.4
-9441787.6
-9471466.1
-9706292.5
-9640937.9
-9657000.4
-9658666.3
-9570349.5
-9595821.9
-9855040.1
-9839529.2
-9927722.3
-9675512.1
-9632449.9
-9836640.4
-9832973.6
-9702864.1
-9743823.3
-9587390.3
-9716566.7
-9524111.4
-9428496.7
-9479287.2
-9842988.1
-9875004
-9145939.6
-9642850.2
-9556148.5
-9250413.3
-9674545
-9259602.2
-9268343.2
-9277605.6
-9252586.4
-9620690.1
-9604963.4
-9575106.9
-9628699.9
-9507448.6
-9522423.1
-9674099
-9322568.5
-9311301.9
-9571791.2
-9561619.7
-9623653.3
-9466257.3
-9658885.6
-9624383.1
-9699898.5
-9311936.1
-9232547.4
-9292476.7
-9558506.8
-9636012.6
-9635805.3
-9482814.8
-9475244.4
-9725074.6
-9476794.5
-9737991.1
-9740999.9
-9736441.5
-9735653.6
-9587126.1
-9612234.1
-9627553.2
-9691025
-9368349.4
-9384439
-9820067.6
-9407426.5
-9787048.1
-9794288.3
-9526317.4
-9642222.4
-9725033.1
-9651389.3
-9205746
-9147631
-9678236.2
-9602147.5
-9561353.8
-8971724
-9077408.1
-9741325.7
-9756198.6
-9445819.4
-9732529.3
-9407673.4
-9757260.2
-9761115.7
-9514667.8
-9743860.1
-9606110.7
-9711406.7
-9653667
-9639906.8
-9604860.9
-9678452.5
-9704317.5
-9705941.8
-9646245.4
-9688991.6
-9619765.3
-9739712.5
-9652639.5
-9742735.9
-9720840.4
-9726008.3
-9555549.7
-9497296.1
-9449202.1
-9587188.4
-9432022.9
-9417720.7
-9236306.3
-9457930.9
-9711850.1
-9202161.8
-9751614.1
-9743288.7
-9709257.3
-9698765
-9756346.3
-9761957.1
-9706820.7
-9490796.7
-9680216.8
-9565033.4
-9260221.4
-9684367.3
-9528331.1
-9742448.4
-9584518.2
-9455290
-9484571.5
-9663728
-9400022.5
-9696602.9
-9511348.6
-9484147.5
-9540044.5
-9705591.8
-9635331
-9518945
-9439101.6
-9648167.6
-9591795.6
-9735828.8
-9697341.5
-9595689.1
-9682333.3
-9725303.3
-9722710.6
-9729097.6
-9720740.1
-9350412
-9535594.9
-9444930.9
-9563554.1
-9582248.8
-9561658.7
-9587002.8
-9586312.9
-9835807.4
-9793931.5
-9460439.2
-9801733.4
-9478662.2
-9735602.1
-9518060.1
-9787581
-9773528.7
-9767046.5
-9802447.8
-9849213.6
-9745068
-9808535.1
-9807884.5
-9806575.9
-9746707.1
-9809945.2
-9744400.5
-9748743.4
-9534517.6
-9551573.5
-9557804.4
-9573698.3
-9364995
-9777261.9
-9681358.1
-9616370.9
-9313968.8
-9652005.5
-9679364.1
-9555961.2
-9408022.1
-9437484.2
-9846341.9
-9901485.9
-9784499.6
-9628791.9
-9498796.3
-9532410.8
-9464176.9
-9525709.1
-9686825.3
-9266635.3
-9611180.1
-9715360.1
-9760638.2
-9796741.5
-9719702.3
-9579209.8
-9865244.1
-9830362
-9675450
-9542373.9
-9405502.8
-9661429.8
-9856093.1
-9787614.7
-9224099.3
-9732644.2
-9466278
-9306551.8
-9614887
-9541423.8
-9586564.8
-9601606
-9354233.3
-9294913
-9552917.7
-9531106.7
-9598273
-9521392.3
-9633239
-9594200.5
-9652215.4
-9290782.2
-9628498.2
-9592090.4
-9505688.8
-9575752.6
-9655992
-9386968.9
-9337410.6
-9789596.8
-9427300.5
-9740683.4
-9802509.2
-9560806.9
-9680691.5
-9735245.3
-9640579.5
-9213138.5
-9699634.1
-9672638.8
-9633067.6
-9610337.6
-9297066.6
-9727720.7
-9738298.4
-9760771.1
-9448126.3
-9753092.9
-9792489.5
-9765411.3
-9761479.8
-9501861.4
-9763223.4
-9594672.6
-9697269.7
-9625407.3
-9670339.9
-9641149.8
-9678369
-9682457.3
-9692160.7
-9682047.8
-9730097.9
-9541343.9
-9593897.9
-9228406.4
-9727751.2
-9753255.6
-9764485.1
-9756948.4
-9707881.8
-9540886.2
-9710782.9
-9570441.5
-9221478.3
-9690515.3
-9492616.1
-9730401.1
-9543772.8
-9458891.9
-9494609.8
-9667928.2
-9406352.3
-9640923
-9662853.3
-9592670.2
-9650405.1
-9731342.9
-9727394.2
-9547670.4
-9544409
-9589288.2
-9602850.4
-9836605.1
-9826210.2
-9453946.3
-9828008.2
-9491170.2
-9766653.5
-9516242.2
-9766637.7
-9771285.4
-9369250.6
-9656218.2
-9899432
-9710319.3
-9780745.9
-9736833.7
-9477802.2
-9261309.1
-9749287.2
-9769278.2
-9506107.8
-9429301.6
-9637006.3
-9615244.6
-9606238.6
-9371414.7
-9797619.4
-9937866.2
-9756847.3
-9569890.5
-9810778.1
-9811656.7
-9807639.5
-9471255.5
-9514895.9
-9491505.1
-9535484.9
-9533810.5
-9586182.9
-9521975.2
-9513172.9
-9538726.5
-9514289.3
-9490269
-9492478.2
-9488467
-9516407.4
-9513648.9
-9530529.4
-9700195.1
-9223246.5
-9556979.4
-9525349.2
-9550592.9
-9441176.6
-9470664.2
-9706631.7
-9640919
-9655937.9
-9657709.9
-9569951.7
-9595439.5
-9855303.9
-9839448.9
-9927856.9
-9675449.3
-9632190.6
-9837082.6
-9832474.7
-9702452.5
-9743334.3
-9586978.6
-9716287.4
-9523753.6
-9427254.8
-9478602.6
-9843114
-9875199.3
-9143446.9
-9642724.6
-9556014
-9249198
-9674586.4
-9258185.9
-9266898.1
-9276422.3
-9251239.3
-9620599.1
-9604866.5
-9574786.6
-9628573.8
-9507078.2
-9522139.9
-9674385.1
-9322419.2
-9310452.1
-9571437.6
-9561386.5
-9623512.6
-9466058
-9659323.2
-9624667.7
-9700233.8
-9310480.2
-9230920
-9290781.6
-9558136.7
-9635961.4
-9635785.6
-9481955.2
-9474498.2
-9724928.2
-9475936.5
-9737758.6
-9740851
-9736136.8
-9735444.7
-9586647.4
-9612030.4
-9627447.5
-9691060.7
-9367884.8
-9383651.7
-9820428.3
-9406526.6
-9787499.8
-9794882
-9526095.2
-9642299.6
-9725559.5
-9651620
-9204173.5
-9146504.5
-9678711.3
-9601989.9
-9561317.9
-8969187.8
-9076190.3
-9741691.3
-9756473.9
-9444959.7
-9732680.5
-9407177.2
-9757369.2
-9761143.5
-9513902.6
-9743775.2
-9605626.6
-9711381.3
-9653694.4
-9639879.6
-9604624.5
-9678621.1
-9704426.3
-9706271
-9646402.3
-9689112.9
-9619570.5
-9739917.7
-9651578.9
-9742907.7
-9721365.9
-9726454.5
-9555080.5
-9496495.9
-9448761.6
-9586768
-9431319.8
-9416691.4
-9234478.5
-9456785.4
-9711646.4
-9200496.7
-9751934.3
-9743438.1
-9709216.7
-9698965.4
-9756257.6
-9762590.2
-9706682.9
-9490663.2
-9680021.6
-9564540.3
-9259434.4
-9684041.7
-9527728
-9742495.8
-9584585.1
-9454890.5
-9484446.6
-9663583.9
-9398847.3
-9696226.6
-9510929.2
-9483387.7
-9539604.1
-9705787.4
-9635273.9
-9518328.5
-9438673.4
-9648056.5
-9591589.5
-9736182.1
-9697652.7
-9595639.1
-9682494.7
-9725129
-9722499.6
-9728857.9
-9720460
-9349632.1
-9535052.3
-9444101.8
-9563532.8
-9581734.9
-9561319.4
-9586524.7
-9586205.5
-9836076.8
-9794211.5
-9459972.5
-9801804.2
-9477997.7
-9735567.9
-9517604.8
-9787772.5
-9773701.1
-9767367.9
-9803099.1
-9849922.4
-9745080.3
-9809112
-9808692.7
-9807529.1
-9746741.6
-9810679.7
-9744321.5
-9748989.2
-9534146.1
-9551114.3
-9557309.7
-9573275.8
-9364268.4
-9777488
-9681545.3
-9616018.4
-9312702.9
-9652040.9
-9679492.1
-9555835.2
-9407617.2
-9436477.4
-9846778
-9901850.3
-9784668.8
-9628917.1
-9497614.6
-9531404.2
-9462792.6
-9524676.6
-9686802.5
-9265825.2
-9610826
-9715330.6
-9760713.1
-9797234.1
-9719982.4
-9579026.3
-9865217.2
-9830419.7
-9675027.3
-9541993.6
-9404140.7
-9661554.2
-9856511.8
-9787585.2
-9222552.9
-9732727.5
-9465366.9
-9305481.3
-9614903.6
-9541120.9
-9586478.6
-9601492.8
-9353515.1
-9294228.4
-9552387
-9530747.3
-9598181.3
-9520777.8
-9633483.8
-9594308.7
-9652427.9
-9289469
-9628588.8
-9591684.2
-9505008.4
-9575462
-9655983.7
-9386373.8
-9336845.3
-9789803.6
-9426445.4
-9740863.3
-9802835
-9560647
-9681074.2
-9735846.6
-9640776.7
-9211571.5
-9699825.6
-9673223.2
-9633108
-9610511.5
-9295997.2
-9727933.1
-9738630.6
-9761110.7
-9447270.1
-9753403.7
-9792706
-9765573.9
-9761508.2
-9501129.2
-9763260.8
-9594251.5
-9697243.6
-9625370.7
-9670532.2
-9641149.3
-9678481.6
-9682631.6
-9692394.6
-9682247.4
-9730461.7
-9541202.4
-9594489.4
-9225856.1
-9728191.4
-9753684.6
-9764474
-9757823.3
-9707768.5
-9540651.5
-9710767.2
-9570117.4
-9221001.8
-9690250.7
-9491967.9
-9730411.2
-9543649.9
-9458221.2
-9494407.6
-9667633.2
-9405267.8
-9640734.6
-9662656.6
-9592185.8
-9650415.3
-9731546.7
-9727109.7
-9547087.5
-9544009.4
-9588862.3
-9602647.7
-9837016.8
-9826650.6
-9453599.9
-9828138.7
-9490551.8
-9766584.8
-9515874.2
-9766836.7
-9771974.5
-9391779
-9664129.4
-9902574.7
-9718366.2
-9788666.2
-9745952
-9485227.5
-9281055.6
-9755451
-9773278.1
-9519879.2
-9438941.8
-9642169.2
-9621089
-9615251.4
-9391252.5
-9804407.2
-9939084.1
-9762202.8
-9580643
-9815952.7
-9815485.5
-9813429.3
-9501748.8
-9542045.1
-9520806.2
-9561604.6
-9558701.2
-9602903.4
-9547778.5
-9534070.1
-9557276.3
-9535284.2
-9514236.8
-9516276.3
-9511588.4
-9542860.9
-9540361.1
-9550482.5
-9702202
-9232603.3
-9561494.6
-9533972.5
-9552651.5
-9455386.4
-9490023.7
-9717962.7
-9653187.6
-9657375.9
-9661363.4
-9577463.7
-9603718.7
-9858657
-9840518.7
-9929135.9
-9682144.7
-9642650.6
-9842310.4
-9832564.8
-9706940.1
-9747084.8
-9592753.3
-9722094
-9537160.3
-9451281.2
-9496689.5
-9846290.4
-9877250
-9173801.5
-9646180.3
-9569663.2
-9259013.5
-9676849.1
-9275571.2
-9284939.6
-9291051.1
-9266520.6
-9628401.1
-9614774.5
-9583177.1
-9636698.7
-9518927.7
-9539685.4
-9683617.2
-9329665.6
-9326420.6
-9578471.6
-9570360.3
-9633158.1
-9469032.8
-9672758.6
-9634764.9
-9707269.7
-9328178.9
-9249260.2
-9312698.5
-9566504.8
-9644240.9
-9646570.2
-9493269.7
-9485646.8
-9729544.1
-9485182.4
-9741822.6
-9745639.7
-9740070.7
-9740480.5
-9592879.1
-9620333.9
-9639557.4
-9698740.9
-9373143.4
-9396574.6
-9824613
-9424799.2
-9792836.9
-9801159.6
-9534415.7
-9652053.2
-9732976
-9661238.9
-9223795.7
-9164775.3
-9688500.6
-9611147.4
-9573846
-9000306.7
-9098514.6
-9748523.6
-9762183.7
-9458551.9
-9738356
-9418135.9
-9762758.1
-9765737.1
-9524981.5
-9748464.7
-9611054.9
-9717784.1
-9662001.9
-9649047.5
-9613407.9
-9684664.9
-9711574.2
-9713752.1
-9656108.8
-9696433
-9625717.1
-9749169.6
-9655030.2
-9749781.7
-9734004.1
-9736122.4
-9568421.2
-9512208.8
-9464526.7
-9594976.5
-9452919
-9439485.5
-9261119.9
-9477327.1
-9716171.7
-9221247
-9759575.2
-9751165.2
-9714161
-9706659.4
-9759712.6
-9772679.2
-9709055.4
-9495534.7
-9684093.4
-9570582.4
-9272155.9
-9686344.7
-9533975.5
-9745660.3
-9588927.4
-9460154.2
-9490508.3
-9664820
-9421483.2
-9699056.9
-9517886.3
-9490408.6
-9548886
-9716480.5
-9646956.4
-9537801.2
-9440077.4
-9660236.3
-9607563.2
-9744760.4
-9707087.9
-9606447.7
-9689442.9
-9731110.7
-9726995.8
-9733418.7
-9724698.8
-9362451.8
-9542094.3
-9464578
-9578830.1
-9589023.9
-9570916.4
-9601151.4
-9605303.7
-9838921
-9798951.8
-9469838.9
-9803321.2
-9488463.1
-9738221.2
-9519772.6
-9791536.8
-9777051.7
-9774298.8
-9811062.2
-9855427.6
-9747511.7
-9814720.3
-9817233.3
-9816816.2
-9752838.5
-9817998.3
-9748228.2
-9757823.3
-9555536.3
-9568170
-9565581.5
-9585592.6
-9379791.1
-9782335
-9688901.1
-9621589.4
-9336130.9
-9660703.1
-9687262.1
-9570027.1
-9417944.7
-9462310.5
-9851342.6
-9904308.4
-9788816.5
-9642836.4
-9526252.1
-9557518.9
-9494209.1
-9551377.8
-9688438.8
-9276789.7
-9616412.8
-9721185.5
-9764034.1
-9804492.7
-9728963.3
-9597202.8
-9866213.7
-9833000.1
-9678610
-9563372.6
-9430790
-9670727.3
-9860318.7
-9791509.9
-9244853.2
-9736222
-9491373.6
-9324636.5
-9619827.4
-9556821.6
-9598844.1
-9606256.9
-9367284.7
-9305324.8
-9560746.3
-9546789.1
-9599734.7
-9536393.7
-9644215.3
-9603373.2
-9660010.9
-9303909.2
-9638496.6
-9599305.2
-9520800.8
-9587483.7
-9660189.6
-9399687.3
-9347689
-9794127.8
-9441128.8
-9746497.2
-9807546.6
-9568136.3
-9691336.3
-9743497.8
-9652145.3
-9232698
-9705524.1
-9684588.8
-9642425
-9623305.4
-9317153.9
-9733049.6
-9746201.2
-9767086.7
-9463255.9
-9759481.8
-9796221.3
-9771568.9
-9766379.5
-9514709.7
-9768100.5
-9600084.4
-9705055.4
-9634990.6
-9680411.5
-9650045
-9684292.1
-9691830.8
-9700371.9
-9691771.2
-9737526.5
-9549522.4
-9609466.7
-9264582.6
-9738426.8
-9760967.3
-9768263.6
-9769161.8
-9711440.1
-9546100.7
-9714984.8
-9575276.7
-9233592.6
-9691982.7
-9498936.9
-9736416.8
-9550290.3
-9465123.2
-9502760.5
-9668157.7
-9426384.6
-9650608.9
-9664728.9
-9597997.8
-9658028.5
-9736726.3
-9731084.6
-9558048.4
-9552111
-9600431.9
-9616876.2
-9840933.5
-9831325.1
-9464780.4
-9829765.4
-9502684.4
-9768225.6
-9517731.4
-9772039.3
-9782297.6
-9444854
-9683889.7
-9909315
-9737363.9
-9806621.5
-9766105.9
-9505520.6
-9330487.3
-9770817.2
-9783335.2
-9553141.3
-9464488.4
-9656624.8
-9637208.7
-9638430.5
-9440030.7
-9820288.9
-9941905.7
-9775246.1
-9606822.7
-9828466.2
-9825248.8
-9827109.2
-9568098.5
-9601753
-9584344
-9618618.3
-9614007.9
-9643084.7
-9604860.2
-9583448.8
-9601704.9
-9584700.8
-9568982.8
-9570675.5
-9564956.2
-9601154.4
-9599095.8
-9597237.7
-9708668
-9257967.2
-9573968.7
-9557308.1
-9562500.8
-9490657.5
-9536261.4
-9743531.2
-9681999.9
-9664114.4
-9673347.9
-9597841.6
-9625466.2
-9866780.8
-9843806.2
-9932177.2
-9699269.2
-9668657.1
-9854263.2
-9834203.6
-9719629.8
-9758013.1
-9608836.3
-9737487.1
-9569716.1
-9507504.9
-9539953
-9854223.6
-9882293.5
-9247661.1
-9655690.3
-9601992.5
-9287613.2
-9682841.2
-9320909.2
-9331587.9
-9329961
-9307324.6
-9647903.8
-9638895.6
-9604822.3
-9657226
-9547984.7
-9579816.6
-9705012
-9348805.2
-9366811.2
-9597330.8
-9592735.8
-9656837
-9477853.4
-9702328.3
-9657984.7
-9723681.7
-9373341.3
-9296638.8
-9367223.7
-9588329.5
-9664657.7
-9672272.9
-9523409
-9515235.8
-9741858.4
-9510782.7
-9753092.3
-9758384.3
-9751184.5
-9753967.2
-9610256
-9641269.1
-9668298.7
-9717583.5
-9388464.7
-9430400.4
-9834425.4
-9469174.2
-9805117.8
-9815077
-9555772.1
-9675136.7
-9749601.7
-9683727.4
-9273890.6
-9210377.2
-9710340.7
-9633894.8
-9603344.7
-9074640.4
-9152030.4
-9764347
-9775724.4
-9493477.1
-9752470.1
-9446273.4
-9776216.6
-9777545.3
-9554244.9
-9760921.9
-9626428.1
-9733989.8
-9682141.6
-9671325.2
-9635665.6
-9699285.8
-9729041.5
-9731167.7
-9678908.1
-9714164.5
-9641717.3
-9770750.3
-9668085.6
-9766468.8
-9761382.7
-9757957.4
-9601424.5
-9550724.2
-9502694.9
-9616677.1
-9503132.9
-9492872.5
-9324759.5
-9526838.8
-9728550.2
-9274253.5
-9777422.8
-9769745.4
-9726981.4
-9725075
-9769121.8
-9794566.5
-9715881.6
-9508714.4
-9695410.5
-9587448.6
-9305568.1
-9693583.3
-9551922
-9753864.3
-9600000
-9475177.9
-9506548.3
-9668698.3
-9475285.7
-9707847.2
-9536735.1
-9510486.5
-9572720.1
-9741150.8
-9674620.2
-9582744.7
-9445231.2
-9689235.5
-9644375.4
-9764550.3
-9728880.6
-9632331.9
-9706211.5
-9746740.4
-9739281.9
-9745903.7
-9736301
-9396019.9
-9561602.4
-9512656.4
-9614230
-9608791.8
-9595380.7
-9636260.1
-9647670.2
-9845766.5
-9810349.2
-9495155.6
-9807343.2
-9516128.5
-9745521.8
-9527029.7
-9800789.4
-9785291.2
-9790453.4
-9828345.1
-9867277.3
-9754139.9
-9827121
-9835253.3
-9835927.6
-9768217.2
-9833726.4
-9758749.8
-9778439.1
-9603174.3
-9608172.8
-9587530.9
-9616216.4
-9418149.2
-9794111.7
-9706434.1
-9636932.7
-9391373
-9681729.7
-9705965.1
-9603154.6
-9444662.3
-9520728.6
-9861671
-9909965.8
-9798854.6
-9674416.9
-9588675.6
-9614891.1
-9562069.3
-9609835.4
-9694216.5
-9306847.1
-9631855.1
-9736171.9
-9772611.4
-9820853.4
-9749942.6
-9638309
-9869154.2
-9839698
-9689208.5
-9611028.3
-9492344.2
-9692602.8
-9869030.9
-9801204.1
-9299933.7
-9745079.9
-9549346.1
-9371725.2
-9632569.2
-9593352.4
-9628046.6
-9619033.5
-9402602.4
-9335284
-9583176
-9584075.1
-9604314.1
-9574366.6
-9668889.2
-9624819.6
-9677973.9
-9342067.7
-9661925
-9619580.2
-9559033.8
-9616692.9
-9671261.5
-9433453.1
-9376353.8
-9804791.7
-9478332.8
-9760302.3
-9818703.1
-9587462.6
-9714528.1
-9760409.7
-9678287.6
-9285699.9
-9719160.6
-9709447.9
-9664849.4
-9652428.8
-9367299.1
-9745251.9
-9763787.8
-9781092.9
-9502997.7
-9773825.3
-9804740.7
-9786206
-9778844.7
-9549228.8
-9780469.5
-9616251.6
-9724456
-9658215.9
-9703464.4
-9671716.7
-9698571.3
-9713503.6
-9719163.3
-9713924.7
-9753881.3
-9570399.1
-9643007.1
-9351160.7
-9761389.6
-9777664.2
-9778235
-9792851
-9721432.3
-9560918
-9725959.4
-9589553.2
-9265971
-9697494.1
-9518756.3
-9751546.2
-9567365.3
-9484757.1
-9524117.2
-9670452.7
-9477108.1
-9674852.2
-9670934.3
-9614410.5
-9676643.1
-9749307.9
-9742311.4
-9586302.7
-9573104.8
-9629508.5
-9650334.9
-9849930.8
-9842077.4
-9492809.9
-9833854.8
-9533722.2
-9772823.9
-9523904.6
-9784772.9
-9804383.9
-9524415.5
-9716494.9
-9919508.7
-9767135.1
-9833036.1
-9796061.7
-9542061.8
-9410001
-9795678.4
-9800535.8
-9605604.1
-9509299.1
-9682716.2
-9665923.6
-9676779.4
-9515516.9
-9844216.5
-9946627.5
-9796696.6
-9648960.2
-9848143.4
-9841612.5
-9848169
-9654145.9
-9679699
-9666715.3
-9692946.5
-9687324.8
-9700849.3
-9680325.9
-9653506.3
-9665915.1
-9654682.9
-9644730.6
-9646030.9
-9639748.5
-9677918.3
-9676364
-9663874.4
-9721496.4
-9304685.4
-9597255
-9597802.4
-9583627.7
-9547767.2
-9605164.2
-9780656.8
-9725319.8
-9678645.8
-9695984.9
-9633269.2
-9662274.2
-9879972.7
-9850296
-9937376
-9727928.7
-9709625.5
-9872376
-9838441.9
-9742235.4
-9777562.3
-9637879.8
-9763435.2
-9621042.6
-9588260.7
-9605238.5
-9867559.1
-9890930.9
-9359555.9
-9673475.3
-9651846.8
-9340509.1
-9694150.4
-9396263.4
-9408282.4
-9396489
-9376997.7
-9680397.8
-9677629.8
-9641384.5
-9691255.5
-9595128
-9639129.2
-9738314.7
-9383925.4
-9433670.1
-9630419.8
-9629972.1
-9694847.6
-9495697.6
-9745025.5
-9694404.2
-9750014.4
-9446617.9
-9374744.6
-9452241.7
-9625525.4
-9697990.7
-9712084.6
-9574029.1
-9565198.8
-9763241.3
-9555603.2
-9773031.3
-9780206.5
-9771008
-9776956.1
-9641341.5
-9676080.7
-9712031.6
-9747931.6
-9418211.1
-9487765.2
-9850272.2
-9538346
-9824614.2
-9836276.8
-9592552.1
-9711444.3
-9775446.4
-9718999.9
-9356036.2
-9286276.8
-9743599.3
-9671117.3
-9649429.7
-9190505.3
-9238422.7
-9789223
-9797554.4
-9550637.1
-9775880.5
-9494407.3
-9798372.8
-9797546.4
-9602945.2
-9782305.3
-9654321
-9760733.4
-9714665.7
-9706963.8
-9672504.9
-9723710.2
-9757267.6
-9758783.2
-9714671.4
-9742910.1
-9669507.2
-9802703.4
-9693320.3
-9792958.8
-9799352.3
-9790367.6
-9652976.9
-9610306.7
-9562895.2
-9653637.6
-9577341.5
-9571240.1
-9421191.7
-9599984.1
-9750346.9
-9360094.7
-9804790.2
-9798449.7
-9749028.2
-9754449.4
-9785947.6
-9825451.9
-9729015.3
-9533304.7
-9716083.2
-9617882.9
-9363855.8
-9707958.3
-9584848.5
-9768584.9
-9619971.4
-9503543.5
-9535715.9
-9676832.2
-9554998.5
-9724832.5
-9570348.4
-9547001
-9612848.3
-9777535.3
-9716845
-9647678.3
-9456887
-9732706.1
-9697903.4
-9794527.2
-9762204.7
-9673389
-9733659.9
-9772701.4
-9760832.2
-9767706.6
-9756756
-9453354.5
-9596439.4
-9584094.1
-9667312
-9643293.3
-9636089
-9688646.2
-9706498.2
-9857364.3
-9828851.5
-9538451.5
-9814966.9
-9563242.1
-9759138.6
-9542348.1
-9816461.2
-9799511.9
-9815348.6
-9852952.1
-9884560.1
-9766521.3
-9846184
-9860304.8
-9861937.5
-9793149.5
-9856436
-9777312.9
-9809053.9
-9669554.7
-9666915.7
-9625257.1
-9664442.9
-9480522.3
-9813425.2
-9734830.2
-9664421.8
-9475161.4
-9715558.5
-9736226.9
-9653700.6
-9490922
-9602445.1
-9877592.3
-9918925
-9815798.6
-9720744.4
-9669873.3
-9689846.6
-9649774
-9686065.1
-9705510.9
-9360978.6
-9659677.7
-9761299.8
-9787796.9
-9844948.3
-9781824
-9696518
-9874898.9
-9851432.2
-9709058
-9677066
-9579144.1
-9727239.2
-9882747.5
-9817882.8
-9387401
-9760816.7
-9629010.4
-9446923.5
-9655255.8
-9648271.1
-9673256.3
-9642368.2
-9462032.2
-9388672.8
-9621845.4
-9640119
-9613693.3
-9632485.1
-9707040
-9659577.2
-9707218.9
-9406802.8
-9698912.2
-9654431.4
-9617797.1
-9662628
-9691228.5
-9489859.6
-9426765.7
-9822503
-9538534.9
-9783026.4
-9836659.8
-9620935.2
-9749631.3
-9786353.6
-9718148.6
-9371119.9
-9741821.7
-9746290.6
-9700737.8
-9696458.5
-9445204.5
-9765528.2
-9791038.3
-9803413.8
-9565706.2
-9796790.1
-9819170.5
-9809626
-9799753.9
-9604545.2
-9801211.6
-9645320.5
-9755558.2
-9695322.9
-9739013.3
-9706661.1
-9722664.3
-9747177.2
-9748958.9
-9748015.4
-9779668.7
-9605843.9
-9693650.2
-9469962.5
-9794913.7
-9803406.4
-9795649.8
-9825486.4
-9739576.2
-9588068.5
-9745308.3
-9615720.4
-9322557.9
-9708723.6
-9554901.4
-9776483
-9597332.7
-9520731.5
-9561091.1
-9675929.1
-9553435.8
-9713201
-9683282.4
-9644111.7
-9707204
-9770305.8
-9762407
-9632533.2
-9609136.9
-9675491.5
-9700106
-9864324.9
-9858942.9
-9539773.9
-9841285.2
-9584825.3
-9781676
-9537077.6
-9805651.4
-9835098.6
-9615960.4
-9757633.4
-9931853.2
-9803477.3
-9863335.5
-9831071.7
-9593190.3
-9508209.3
-9826469.7
-9823564.3
-9669648.4
-9570172.8
-9718708.3
-9705195.5
-9725104.5
-9604434.3
-9871876.2
-9952888.8
-9824112.5
-9701617.3
-9872007.4
-9862674.6
-9873234.6
-9740585.3
-9758474.1
-9749624.3
-9768163
-9762300.1
-9763702.9
-9757368
-9728902.4
-9736090.8
-9729965.1
-9724954.4
-9725841.7
-9719684
-9756071.9
-9754985.4
-9736073
-9741323.9
-9372868.4
-9631653.4
-9651459.8
-9616561.4
-9618898.2
-9683171.1
-9822536.8
-9775430.2
-9701598.3
-9728053.1
-9680527.2
-9709773.3
-9896623.2
-9860299.2
-9944388.6
-9764904.6
-9758718.8
-9893743
-9845886.1
-9772851.5
-9803963
-9678283.3
-9796587.9
-9683372.9
-9676413.7
-9680290.1
-9884777.8
-9902619.9
-9488139.2
-9699820.2
-9711284
-9415778.9
-9711580.8
-9491586.3
-9504183.9
-9483445.5
-9467777.3
-9722559
-9725878.7
-9689062
-9734700.4
-9654666.9
-9707096.9
-9778913
-9435819.9
-9519087.4
-9675169.4
-9678501.5
-9741885.9
-9524580.4
-9793340.7
-9739548.6
-9783468.7
-9537360.7
-9473213.1
-9552797.3
-9674414.3
-9740243
-9759758.3
-9638312.7
-9629209.5
-9791771.6
-9615107.6
-9799886.2
-9808714.5
-9797850.2
-9806736.7
-9683834.8
-9720871.8
-9763206.8
-9785658.5
-9463846.5
-9562186.8
-9870396.3
-9620571.8
-9849062
-9861832.8
-9642076.6
-9755981.6
-9807438.3
-9762233.1
-9459241
-9385594.3
-9783732.5
-9718276.3
-9705512.3
-9331225.4
-9349040.2
-9819976.3
-9825189.1
-9621820.9
-9805977.4
-9558758.2
-9826478.5
-9823614.4
-9664162.1
-9810327.1
-9693087
-9794610.1
-9755595.9
-9751139.4
-9719417.4
-9756102.4
-9792587
-9793266.4
-9758512.3
-9779224
-9707234
-9839215.6
-9728347.4
-9825331.8
-9840745.8
-9827856.8
-9714077.9
-9680475.3
-9635978.6
-9701647.9
-9661355.2
-9658928.5
-9532981.6
-9681703.5
-9779690.6
-9466051.8
-9837320.2
-9832495.2
-9778418
-9790902.2
-9809128.5
-9859760.6
-9748899.3
-9570065.8
-9745258.4
-9660176.2
-9443234.4
-9729951
-9631016.9
-9789544.1
-9649227.7
-9545536.4
-9577988
-9690472.8
-9644791.8
-9749758.3
-9617006.5
-9597852.5
-9665139.5
-9819029.2
-9766492.4
-9719716.1
-9477503.6
-9782561.3
-9757814.5
-9829796.4
-9801866.2
-9724023.3
-9768927.9
-9805455.2
-9789664.5
-9796664.5
-9784430.7
-9528774.3
-9644134.9
-9665394
-9728711.4
-9689307.1
-9688178.2
-9748214.4
-9769784.4
-9872935.4
-9852268.2
-9596307.1
-9826587.5
-9624572.9
-9779109.1
-9567594
-9837385.8
-9819128.2
-9845221.8
-9880681.5
-9904594.7
-9784817.8
-9869431.9
-9887999.3
-9890276.3
-9824039.7
-9882415.6
-9802499
-9844128.9
-9741058.3
-9732887.9
-9674971.9
-9722116.1
-9559303.5
-9838134.8
-9770955.3
-9702378.9
-9573107.5
-9757796.9
-9774262.1
-9713623.4
-9553567.7
-9690186.2
-9896797.1
-9930193.1
-9838094.9
-9773482
-9751680
-9765714.3
-9737732
-9763158.1
-9723531
-9436595
-9698184.4
-9793688.3
-9808953.8
-9872713.7
-9819348.1
-9760070.8
-9883658.2
-9867469.7
-9737560.7
-9747796.3
-9672445.3
-9769714
-9899742.2
-9839978.1
-9493787
-9782975.8
-9713208.6
-9539245.5
-9687489.6
-9712177.9
-9727560.6
-9675901.3
-9539264.6
-9462531.8
-9672700.4
-9705373.4
-9629334.3
-9700180.1
-9753340.6
-9704266.2
-9744940.9
-9491135.5
-9744514.5
-9700255.6
-9686832.9
-9718222.6
-9719732
-9562886.2
-9495980
-9845417.7
-9613113.6
-9812141.3
-9859278.4
-9666165.2
-9791321.3
-9818064.9
-9765549.7
-9476605.2
-9771818.4
-9789504.5
-9745414.1
-9748474.5
-9539417.2
-9792394.5
-9824008.8
-9831343.2
-9641031.1
-9825591.8
-9838614.4
-9838494.8
-9826682.6
-9671574.9
-9827927.4
-9685534.8
-9793721.9
-9741393.7
-9781678.4
-9750317.9
-9754823.2
-9787817.6
-9785946.4
-9788934.3
-9811670.9
-9653228.7
-9752843
-9594885.1
-9833065.8
-9834490.6
-9819159.7
-9861145.1
-9765252.2
-9627227.4
-9772078.1
-9653199.5
-9400917.5
-9726586.6
-9605376.4
-9808093.3
-9639046.4
-9571566.3
-9611536.1
-9685926.7
-9640708
-9759744.1
-9702748.4
-9685188.2
-9746466.3
-9797942.4
-9789729.1
-9689999.1
-9657322.5
-9730588.5
-9756886.6
-9882541.9
-9879715
-9601315.5
-9852253.4
-9649006.1
-9795314.8
-9559281.9
-9832234
-9868756.2
-9705074.7
-9801006.4
-9944893.3
-9841038.6
-9893646.8
-9866438
-9651518
-9608667.9
-9858619.8
-9849204.5
-9735225.4
-9637780.4
-9759234.3
-9749026.4
-9775605.7
-9692370.1
-9899785.5
-9959962
-9853524.3
-9756701.7
-9896759.6
-9885381.7
-9898936.2
-9817659.3
-9829211.7
-9823753.8
-9835896
-9830229.3
-9823121.3
-9827047.4
-9799337
-9802380.8
-9800262.9
-9799045.3
-9799550.7
-9793886.4
-9826606.2
-9825913.6
-9803801.2
-9766206.5
-9454500.5
-9673351.7
-9709533.4
-9657551.2
-9692530.4
-9758306.8
-9863602.7
-9825058.6
-9730573.9
-9764767.8
-9732055
-9760281.6
-9914475.7
-9872873.7
-9952374.2
-9804554.6
-9808298.3
-9915673.9
-9856116.8
-9806771.9
-9833160.8
-9724061.3
-9831759.4
-9746907.5
-9759193.8
-9753573.2
-9903490.7
-9915878.9
-9611843.3
-9731971.3
-9771187.9
-9502291.8
-9734131.1
-9590742.7
-9603069.7
-9576502.6
-9564661.9
-9768160.6
-9776360.8
-9740655.9
-9780875
-9717413.6
-9773702.9
-9820914.4
-9499487.4
-9609066.3
-9724813.4
-9731147.3
-9790690.8
-9563171.6
-9840725.1
-9786862.5
-9819380.1
-9630589.8
-9575751.1
-9652336.1
-9727589.5
-9785125.9
-9808349.5
-9705558.7
-9696691.5
-9823307.4
-9679589
-9829688.2
-9839621.8
-9827697.4
-9838780.2
-9731220
-9768771
-9814276.4
-9825107.1
-9521113.6
-9641275
-9892053.6
-9702555.3
-9875083.2
-9888338.5
-9697047.2
-9802146.7
-9841224.4
-9807073.3
-9566255.6
-9493277.6
-9825114.3
-9768179.4
-9763105.1
-9474046.7
-9467356.8
-9852331.4
-9854756.1
-9695320
-9838322
-9629707.1
-9856408.4
-9851912.6
-9727674
-9840744.7
-9736914.6
-9830524.9
-9798862.3
-9797244
-9769083.1
-9792052.8
-9829771.8
-9829702.1
-9804005.3
-9817756.3
-9749611.4
-9875429.7
-9768817.8
-9858825.1
-9880598.4
-9865256.4
-9775017.2
-9750121.1
-9710175.6
-9752933.5
-9742179.1
-9742406.8
-9641864.6
-9759587.7
-9812364.4
-9574641.4
-9870457.8
-9867032.8
-9811018.5
-9829092
-9835389.3
-9893324.5
-9773570
-9615527
-9778874.4
-9708237.1
-9531915.5
-9757234
-9683545.9
-9814269.5
-9685110
-9596468.4
-9628596.3
-9709420.1
-9730750
-9779392.4
-9670380.5
-9655709.8
-9721545.1
-9859992.2
-9816209
-9788521
-9507502.3
-9831622.1
-9815666
-9865415.3
-9842157.2
-9776517.9
-9806945.6
-9840020.3
-9821460.9
-9828380.3
-9815316.7
-9610127.5
-9697511
-9744079.5
-9789152.3
-9739470.5
-9743396.7
-9806309.7
-9829315.9
-9890468.6
-9877344.3
-9660144.4
-9841294.6
-9690098.5
-9803166.3
-9601567.2
-9860718.9
-9841748.2
-9875942.7
-9908300.5
-9925055.2
-9807110.1
-9893699.2
-9915188.9
-9917839.9
-9856364.1
-9908489.2
-9830699.7
-9878999.4
-9808129.3
-9796491.2
-9728775.8
-9780073.9
-9641931.3
-9864783
-9809619.9
-9745196.8
-9669467.6
-9802044.8
-9814383
-9773805.9
-9623314.3
-9771816.4
-9916832.4
-9942362.3
-9862649.7
-9825201.3
-9824914.4
-9834022.1
-9816015.7
-9832465.8
-9746793.5
-9522523.5
-9741652.1
-9828402.5
-9833348.2
-9900613.3
-9857209.2
-9820379.6
-9894582.6
-9885634
-9770787.7
-9813920.4
-9759005.6
-9813646.7
-9917782.6
-9864332.5
-9601223.1
-9808946.9
-9790815.3
-9633433.3
-9725443.5
-9775497
-9782743.8
-9715493.6
-9621763.9
-9545806
-9727566.4
-9770082.3
-9651188.6
-9766912.3
-9801011.9
-9752557.4
-9785846.7
-9581615.8
-9792026.2
-9749811.7
-9755346.5
-9774880.2
-9753348.9
-9640835.6
-9573773.6
-9870287.3
-9689659.5
-9843421
-9883437.5
-9716551.8
-9833687.3
-9851236
-9813572.1
-9584417.4
-9805115.6
-9833110.9
-9792157.2
-9800871.8
-9634999.4
-9822289
-9858068.7
-9860963.4
-9716723.5
-9856139.3
-9860571.5
-9868629.1
-9855619.5
-9739257.5
-9856642.8
-9730896.7
-9833180.7
-9789468.7
-9825266.3
-9796053.8
-9790642
-9829520.5
-9824758
-9830829
-9845364.9
-9705842.9
-9810496.2
-9708273.8
-9870788.1
-9866585
-9845390.4
-9895555.4
-9795081.2
-9673548.7
-9802676.5
-9697198.6
-9490486.1
-9749761.4
-9662620.1
-9841658.8
-9687164.8
-9630290.5
-9668413.7
-9700786.3
-9725111.9
-9807387
-9727976.9
-9731373.7
-9788687.2
-9828402.5
-9820229.4
-9749465.8
-9710553.9
-9786134.2
-9812446.8
-9902162
-9901636.8
-9668080.7
-9865806.8
-9715707.3
-9812749.4
-9590046
-9860684.4
-9901290.9
-9783137.9
-9841552.4
-9957523.3
-9875957.6
-9921504.8
-9898936.3
-9708151.7
-9699123.8
-9888834.3
-9874221.2
-9794984.3
-9702184.9
-9798446.6
-9791191.9
-9822372.4
-9770218.6
-9925687
-9967170.9
-9881579.3
-9807761.1
-9920154.9
-9907272.5
-9923047.8
-9881398.5
-9888205
-9885215.5
-9892524.4
-9887390.4
-9875077.2
-9885513.7
-9859960.8
-9860023.5
-9860748
-9862132.1
-9862362.7
-9857313
-9885658
-9885256.6
-9862248.3
-9792339.8
-9536493.1
-9715942.6
-9764103.3
-9699804.5
-9759764.3
-9824086.9
-9900587.2
-9869785.5
-9760856.5
-9800661.4
-9780867.4
-9807487.2
-9931776.3
-9886214.8
-9960468
-9842094.3
-9853513.5
-9936348.8
-9867620.4
-9839443.5
-9861365.7
-9768457.8
-9864913.9
-9804733.4
-9830303.4
-9818328.1
-9921710.2
-9929157.2
-9718501
-9765077.5
-9825407.6
-9585974.1
-9758739.7
-9681140.4
-9692769.9
-9662985
-9654621.7
-9811561.5
-9823383
-9789741.4
-9824314.8
-9775621.8
-9832816.7
-9859886.8
-9565202.8
-9691672.5
-9772523.4
-9781075.6
-9835827.3
-9605935.2
-9883171.9
-9830901.5
-9853556
-9715190.1
-9669466
-9740506.8
-9778259.3
-9827436.7
-9853119.2
-9767623.6
-9759237.4
-9853999.9
-9740343.3
-9858742.1
-9869311
-9856761.8
-9869418.5
-9776875.5
-9813833
-9860493.6
-9862001.9
-9580887.1
-9714349.2
-9912927.7
-9775661.4
-9899892.5
-9913261
-9749696.9
-9844940.7
-9873165.2
-9848684.6
-9663477.1
-9594069.9
-9863461.5
-9814925.3
-9815900.3
-9601513.7
-9577159.1
-9882901.4
-9882963
-9762517.8
-9869164.5
-9697168.3
-9884895.4
-9879139.1
-9785989.9
-9869945
-9779396.2
-9864493.6
-9839468.3
-9840214.1
-9815531.7
-9826882.8
-9864754.9
-9864025.1
-9846244.4
-9854083.2
-9790867.3
-9908449.8
-9811221.7
-9890061
-9916076.8
-9899299.3
-9829801.9
-9812383.7
-9777174.6
-9800951.2
-9812538.4
-9814492.6
-9736745.5
-9827260.6
-9844402
-9673174.6