/*--------------------------------*- C++ -*----------------------------------*\
  =========                 |
  \\      /  F ield         | OpenFOAM: The Open Source CFD Toolbox
   \\    /   O peration     | Website:  https://openfoam.org
    \\  /    A nd           | Version:  8
     \\/     M anipulation  |
\*---------------------------------------------------------------------------*/
FoamFile
{
    version     2.0;
    format      ascii;
    class       volScalarField;
    location    "3600/buildings";
    object      ws;
}
// * * * * * * * * * * * * * * * * * * * * * * * * * * * * * * * * * * * * * //

dimensions      [1 -3 0 0 0 0 0];

internalField   nonuniform List<scalar> 
3640
(
8.1291753
8.0079993
7.9094095
7.9858538
7.9571616
7.9751185
8.0828322
8.1762631
7.9698104
7.9617005
8.0708207
8.1035281
8.0158478
8.0249328
8.0287128
8.1281767
7.9501953
7.8939762
7.9667787
8.0439965
7.944904
7.9444726
7.9461984
8.0852071
8.0667695
8.076675
8.058165
8.0588457
8.0368473
8.0638424
8.067526
8.0567779
8.067076
8.0772633
8.0763297
8.0780399
8.0661628
8.0673326
8.0603086
7.9897898
8.1934983
8.0494182
8.0625646
8.0515179
8.098396
8.0857115
7.9874064
8.0144048
8.0077439
8.007054
8.0438753
8.0332032
7.9269617
7.9332006
7.8979218
8.0000879
8.0179314
7.9343642
7.9358419
7.9888159
7.972025
8.0367311
7.9831868
8.063357
8.104096
8.0823787
7.931808
7.9189533
8.2281962
8.0136109
8.0498437
8.1816491
8.0004873
8.1775928
8.1737398
8.169663
8.1806893
8.0228251
8.0293835
8.0418789
8.0194909
8.0704123
8.0640709
8.0006715
8.1499588
8.1548828
8.0432702
8.0475427
8.0215911
8.0879334
8.0069632
8.0212873
7.9900357
8.1546054
8.1895531
8.1631302
8.0488516
8.0164506
8.0165368
8.0808768
8.0841009
7.9796977
8.0834405
7.9744094
7.9731791
7.9750433
7.9753657
8.0368417
8.0263494
8.019968
7.993689
8.130042
8.1230769
7.9410495
8.1131568
7.9544198
7.9514823
8.0624243
8.0138715
7.9797147
8.0100689
8.2014532
8.2274363
7.9989631
8.0305595
8.0476545
8.3076162
8.259165
7.9730458
7.9669727
8.0966694
7.9766443
8.1130504
7.9665397
7.9649679
8.0673533
7.97201
8.0289045
7.9853052
8.0091248
8.0148329
8.0294263
7.9988739
7.9882183
7.9875505
8.012202
7.9945269
8.0232103
7.9737054
8.0095507
7.9724694
7.9814336
7.9793151
8.0500956
8.0747202
8.0952215
8.0368156
8.1025826
8.1087262
8.1878882
8.091489
7.9851231
8.2030486
7.9688432
7.9722435
7.9861881
7.9905021
7.9669125
7.964625
7.9871893
8.0774816
7.9981457
8.046108
8.1773197
7.9964334
8.0615732
7.972587
8.0379338
8.0926177
8.0801292
8.004959
8.116348
7.991392
8.0687593
8.0803096
8.0566278
7.9876944
8.0167338
8.0655425
8.099547
8.0114047
8.0348873
7.975294
7.991088
8.0332587
7.9972724
7.979604
7.9806667
7.9780495
7.9814747
8.1378282
8.0585054
8.0970498
8.0467296
8.0388846
8.0475263
8.0368933
8.0371822
7.9346998
7.951627
8.0904174
7.9484651
8.0826449
7.9753868
8.0659171
7.9542035
7.9599136
7.9625518
7.9481757
7.9293035
7.9715164
7.9457116
7.9459748
7.9465044
7.9708468
7.9451411
7.9717891
7.9700152
8.0589601
8.0517692
8.049147
8.0424699
8.1314964
7.9583955
7.9976747
8.0246247
8.1537164
8.0098134
7.9984976
8.0499225
8.1129003
8.1002403
7.9304585
7.9083676
7.9554546
8.0194527
8.0740832
8.0598497
8.0888214
8.0626814
7.9954198
8.1744922
8.0267891
7.983682
7.9651625
7.9504877
7.9819004
8.0401583
7.9228653
7.9368948
8.0001136
8.0556455
8.1139856
8.00591
7.9265387
7.9541898
8.1932985
7.9765973
8.0879246
8.1569615
8.0252432
8.0560461
8.0370767
8.0307857
8.1361676
8.1620614
8.0512033
8.0604005
8.0321785
8.064507
8.0176033
8.0338813
8.0097264
8.1638738
8.0195748
8.0347639
8.0711585
8.0416081
8.0081616
8.1219834
8.1434858
7.9533853
8.1046095
7.9733084
7.9481508
8.0478844
7.9979498
7.9755327
8.0145536
8.1981657
7.9901445
8.0012748
8.0176746
8.0271405
8.161117
7.9786135
7.9742837
7.9651084
8.0956819
7.9682397
7.9522118
7.9632178
7.9648195
8.0727822
7.964109
8.0336838
7.9911175
8.020861
8.0022248
8.0143168
7.9989083
7.9972212
7.9932212
7.9973901
7.9776398
8.0560798
8.0340078
8.1913883
7.978601
7.9681733
7.963595
7.9666669
7.9867532
8.0562728
7.9855614
8.0438367
8.1944616
7.993899
8.0767083
7.9775157
8.0550557
8.0910784
8.0758612
8.0032218
8.1136196
8.014411
8.0053209
8.0345213
8.0104769
7.9771301
7.9787472
8.0534131
8.0547875
8.0359365
8.0302659
7.9343784
7.9385696
8.0931922
7.9378442
8.0773229
7.9627119
8.0666866
7.9627183
7.9608263
8.1296514
8.0080679
7.9091871
7.9857518
7.9569794
7.9748829
8.0830112
8.17684
7.9697931
7.9616432
8.0709809
8.1037504
8.0160377
8.0250942
8.0288511
8.1287137
7.9501319
7.8938942
7.9667081
8.0440681
7.9448042
7.9444488
7.946074
8.0858013
8.0672567
8.0771805
8.0585518
8.0592587
8.0372366
8.0642604
8.0679864
8.0571838
8.0675136
8.0777059
8.0767669
8.0784721
8.0666167
8.0677848
8.0606444
7.9899137
8.1936769
8.0494941
8.0628336
8.0521821
8.0986578
8.0860534
7.987267
8.0144127
8.008184
8.0074501
8.0440423
8.0333631
7.9268557
7.9332329
7.8978683
8.0001139
8.0180392
7.934186
7.936043
7.9889852
7.9722249
8.0369035
7.9833014
8.0635082
8.1046292
8.0826703
7.9317574
7.9188751
8.2293166
8.013663
8.0499002
8.182186
8.0004702
8.1782176
8.1743764
8.1701835
8.1812842
8.022863
8.029424
8.0420133
8.0195434
8.0705694
8.0641908
8.0005534
8.150024
8.1552545
8.0434186
8.0476407
8.0216497
8.0880185
8.006782
8.0211688
7.9898978
8.1552422
8.1902742
8.163874
8.0490073
8.0164719
8.0165449
8.0812427
8.0844189
7.9797577
8.083806
7.9745045
7.9732399
7.975168
7.9754511
8.0370421
8.0264344
8.020012
7.9936743
8.1302434
8.1234173
7.9409038
8.1135445
7.9542365
7.9512416
8.0625182
8.0138395
7.979499
8.0099732
8.202153
8.2279424
7.998767
8.0306254
8.0476696
8.3087895
8.2597185
7.9728964
7.9668604
8.0970374
7.9765824
8.1132642
7.9664953
7.9649566
8.0676774
7.9720447
8.0291066
7.9853156
8.0091135
8.0148443
8.029525
7.9988042
7.9881735
7.9874152
8.0121369
7.9944769
8.0232914
7.9736215
8.0099903
7.9723992
7.9812181
7.9791323
8.050293
8.07506
8.09541
8.0369916
8.1028842
8.1091689
8.1886976
8.0919785
7.9852067
8.20379
7.9687126
7.9721824
7.9862047
7.9904197
7.9669486
7.964367
7.9872459
8.0775384
7.9982262
8.0463152
8.1776668
7.9965677
8.061828
7.9725675
8.0379058
8.0927885
8.0801823
8.0050186
8.1168549
7.9915469
8.068937
8.080633
8.0568136
7.987614
8.0167576
8.0658035
8.0997305
8.0114508
8.0349735
7.9751494
7.9909599
8.0332796
7.9972058
7.9796755
7.9807533
7.9781477
7.9815896
8.1381672
8.0587344
8.0974048
8.0467385
8.0391
8.0476689
8.0370935
8.0372272
7.9345912
7.9515134
8.0906168
7.9484364
8.0829279
7.9754007
8.0661098
7.9541258
7.9598435
7.9624209
7.947912
7.9290185
7.9715114
7.9454782
7.9456478
7.9461187
7.9708327
7.944844
7.9718214
7.9699148
8.059117
8.0519626
8.0493551
8.0426472
8.1318115
7.9583035
7.9975974
8.0247716
8.15427
8.0097987
7.9984447
8.0499755
8.1130747
8.1006719
7.9302831
7.9082222
7.9553858
8.0194006
8.074585
8.0602748
8.0894124
8.0631179
7.9954293
8.1748492
8.0269368
7.9836941
7.965132
7.9502881
7.9817855
8.0402352
7.9228761
7.9368716
8.0002881
8.0558058
8.1145726
8.0058585
7.9263705
7.9542018
8.1939847
7.9765632
8.0883134
8.1574301
8.0252363
8.0561738
8.0371128
8.030833
8.1364796
8.1623617
8.0514267
8.0605523
8.0322168
8.064767
8.0175016
8.033836
8.0096384
8.1644502
8.0195372
8.0349339
8.0714471
8.0417299
8.008165
8.1222406
8.143732
7.9533014
8.1049767
7.9732349
7.9480189
8.0479516
7.9977919
7.9752867
8.0144718
8.1988622
7.9900657
8.0010333
8.0176578
8.027068
8.1615859
7.9785265
7.9741479
7.9649699
8.0960484
7.9681129
7.952124
7.9631515
7.9648079
8.073093
7.9640938
8.0338599
7.9911283
8.0208762
8.0021453
8.014317
7.9988618
7.9971493
7.9931248
7.9973078
7.9774909
8.0561395
8.0337604
8.1925192
7.9784207
7.9679983
7.9635995
7.9663101
7.9867998
8.0563718
7.9855678
8.0439728
8.1946731
7.9940081
8.0769838
7.9775115
8.0551075
8.091365
8.0759471
8.0033438
8.1140868
8.0144892
8.0054023
8.034724
8.0104727
7.9770466
7.9788638
8.0536587
8.0549559
8.0361148
8.0303506
7.9342125
7.938392
8.0933403
7.9377916
8.0775857
7.9627398
8.0668424
7.9626372
7.9605459
8.1199055
8.0047929
7.9079333
7.9824484
7.953763
7.9711553
8.0798501
8.168146
7.9672776
7.9600156
8.0651472
8.0996155
8.0138936
8.0226589
8.0250913
8.1201328
7.9473823
7.893411
7.9645249
8.0395576
7.942712
7.9429009
7.943732
8.07283
8.0557841
8.0647549
8.047549
8.0487698
8.0302438
8.0533676
8.0591491
8.0493692
8.0586365
8.0675358
8.0666722
8.0686577
8.0554401
8.0564943
8.0522286
7.9890882
8.1895283
8.0475953
8.0591903
8.0513154
8.0925765
8.0778103
7.982614
8.0093235
8.0075884
8.0059375
8.0408904
8.0299033
7.925509
7.9328021
7.8973602
7.9973502
8.0136938
7.9320808
7.9360067
7.9871402
7.9706926
8.0344866
7.9809196
8.0578447
8.094332
8.0749778
7.9304792
7.9180538
8.215705
8.012229
8.0441635
8.1778525
7.9995358
8.1705579
8.1664392
8.1637557
8.1745428
8.0196152
8.0252902
8.0384957
8.0161655
8.0655498
8.0567793
7.9967427
8.1468616
8.1482773
8.0404678
8.0438708
8.017637
8.0867492
8.0012253
8.0169691
7.9870048
8.1475101
8.1821586
8.1542719
8.0454899
8.0130337
8.0120673
8.0764306
8.0796717
7.9778666
8.0798693
7.9728427
7.9712829
7.973559
7.9733914
8.034434
8.0229734
8.0149781
7.9905121
8.1279649
8.1178354
7.9392142
8.1056838
7.9520709
7.9486975
8.0590032
8.0097937
7.9764615
8.005989
8.1934332
8.2197455
7.9947293
8.0268027
8.0424079
8.2944283
8.2495899
7.970105
7.9645327
8.0912237
7.9742602
8.1085476
7.9642986
7.963085
8.0629891
7.970129
8.0268413
7.9826873
8.0056732
8.0110398
8.0258599
7.9963106
7.9852364
7.9843421
8.0081132
7.9914619
8.020732
7.9698412
8.00856
7.9695913
7.9760406
7.9751739
8.044685
8.0683949
8.088672
8.0335567
8.0936315
8.0993824
8.1769235
8.0832136
7.9833489
8.1945642
7.9655958
7.9690265
7.9841742
7.9872556
7.9655398
7.9602592
7.986271
8.0754683
7.9965463
8.0437776
8.1720609
7.995618
8.059189
7.9712744
8.0360876
8.0905392
8.0776042
8.0045072
8.1071086
7.990382
8.0659906
8.0776466
8.052901
7.9832222
8.0119071
8.0575742
8.0991288
8.006404
8.0282982
7.9716421
7.9870795
8.0287638
7.9943409
7.9772251
7.9789105
7.9762803
7.9798518
8.1325995
8.0557633
8.0886501
8.0403175
8.0360472
8.0436374
8.0309756
8.0292415
7.9334455
7.9495919
8.0864054
7.947822
8.0784738
7.9743153
8.0651923
7.9525982
7.9584809
7.9596004
7.9446893
7.926806
7.9705182
7.9432101
7.9421945
7.9423631
7.9683435
7.9418854
7.9702256
7.9663101
8.0501012
8.0447905
8.0458777
8.0374838
8.1250871
7.9563338
7.9945642
8.0224505
8.1440433
8.0062108
7.9952398
8.0440107
8.1086299
8.0896182
7.9284476
7.9072418
7.953702
8.0136167
8.0624519
8.0492671
8.0760314
8.0518516
7.9947548
8.1700218
8.0246072
7.9812921
7.9637787
7.9473477
7.9781045
8.0326258
7.9224764
7.9358312
7.9988088
8.0468059
8.1031116
8.0020647
7.9248418
7.9526092
8.1841065
7.9751331
8.0772364
8.149056
8.0231844
8.0495605
8.0319398
8.0288435
8.1305036
8.1574987
8.0479099
8.0537844
8.0315676
8.0581682
8.0130444
8.0300476
8.0064973
8.1581186
8.0154186
8.0317471
8.0647572
8.0366919
8.0064233
8.1164926
8.1390121
7.9515474
8.0986783
7.9709326
7.9461116
8.0448046
7.9935608
7.972158
8.0097555
8.1894863
7.9877222
7.996342
8.0137874
8.021736
8.1523241
7.9764314
7.9710535
7.9625354
8.0892146
7.9656339
7.9506986
7.960711
7.9628234
8.0673355
7.9621227
8.0314215
7.9879149
8.0168753
7.9980653
8.0106262
7.9964644
7.9933571
7.989841
7.9933816
7.9745994
8.052633
8.0275039
8.1753968
7.9742312
7.9650284
7.9620563
7.9616906
7.9852915
8.0540745
7.9838361
8.0418077
8.18909
7.9932945
8.0740235
7.9750534
8.0523095
8.0884174
8.0724007
8.0031269
8.1050029
8.0103924
8.0045449
8.0322935
8.0073181
7.9749268
7.9772358
8.0490444
8.0515429
8.0312763
8.0244141
7.9326351
7.9365065
8.0885638
7.9371354
8.072433
7.9620717
8.0660562
7.9605196
7.956349
8.0970827
7.9966303
7.9052462
7.974666
7.9464859
7.9629349
8.0712299
8.1465033
7.9610169
7.9559275
8.0511092
8.0886884
8.0078995
8.0159536
8.0154461
8.0991488
7.9409601
7.892292
7.9592151
8.0286073
7.9376595
7.9389576
7.9382069
8.0448205
8.0307243
8.0380068
8.0236882
8.0256098
8.0135136
8.0294266
8.0383818
8.0307444
8.0378573
8.0444492
8.0437385
8.0461405
8.0309744
8.0318346
8.0326113
7.9864302
8.1783141
8.0423564
8.0493558
8.0471723
8.0775408
8.058224
7.9721444
7.9974099
8.0047991
8.0009819
8.0323588
8.0208365
7.922249
7.9314788
7.8961522
7.9902947
8.0029204
7.9272738
7.9353461
7.9819301
7.9662327
8.0277669
7.9746156
8.0441412
8.0703884
8.0566664
7.9272897
7.9160352
8.1828652
8.0082865
8.0306243
8.1652649
7.9970628
8.1506834
8.1460234
8.1467328
8.1566232
8.0115141
8.0152529
8.0294424
8.0076505
8.0532807
8.0399039
7.9879327
8.1385268
8.1307088
8.0325723
8.0344939
8.0078116
8.0829894
7.9890362
8.0073363
7.9802686
8.1278792
8.1613046
8.13053
8.0363379
8.0045744
8.001426
8.063654
8.0671127
7.9728281
8.0689991
7.96824
7.9660813
7.9690186
7.967883
8.0271746
8.0142673
8.0030686
7.9827696
8.1213371
8.1032788
7.9352567
8.0866889
7.9470946
7.9430659
8.050002
8.000243
7.9696647
7.9966973
8.1712974
8.1993932
7.985743
8.0173307
8.0300595
8.2604231
8.2254607
7.9636512
7.9590206
8.0763424
7.9684939
8.096475
7.9588205
7.9582802
8.0506447
7.9650469
8.0204362
7.9760465
7.9973514
8.0018176
8.0165948
7.9902878
7.9780725
7.9772018
7.9986858
7.9841728
8.0140812
7.9610441
8.0031567
7.9627871
7.9648591
7.9662554
8.0308616
8.0521268
8.0724285
8.024497
8.0722427
8.0765993
8.1490023
8.0622039
7.9782737
8.1711377
7.95833
7.9614531
7.9789164
7.9796976
7.9617069
7.9513695
7.983468
8.0698757
7.9918828
8.0367067
8.1573921
7.9926353
8.0516225
7.967925
8.0314567
8.0841293
8.070794
8.0029034
8.0840833
7.9867674
8.0580241
8.0691246
8.0428804
7.9731174
8.0004563
8.0386768
8.0969212
7.9944264
8.0129779
7.9635684
7.9781384
8.0179805
7.9874397
7.9708332
7.9738815
7.971175
7.9751008
8.1180747
8.04755
8.0682053
8.0255172
8.0277855
8.0333877
8.0163478
8.011611
7.93069
7.9449777
8.0756293
7.9461939
8.0667347
7.971331
8.0621232
7.9488475
7.9551331
7.9530378
7.9377083
7.9220499
7.9678125
7.9382022
7.9349231
7.9346514
7.9620751
7.9355384
7.9659323
7.9579169
8.0301307
8.0280438
8.0366722
8.0246891
8.1085419
7.9515539
7.9873482
8.0160683
8.1200808
7.9975214
7.987541
8.0301389
8.0971648
8.0647878
7.924299
7.9049869
7.9496313
8.0005402
8.036193
8.0252415
8.0473537
8.02735
7.9923745
8.1568322
8.0181787
7.9751536
7.9602868
7.9407321
7.9695256
8.0154966
7.9212974
7.9331326
7.9944375
8.0268524
8.0768239
7.9930391
7.9213468
7.9486795
8.1598602
7.9715116
8.0527072
8.1285792
8.0178818
8.034236
8.0197627
8.0235152
8.1152356
8.1444123
8.0384961
8.0381195
8.0296547
8.0421895
8.0028244
8.0211056
7.9990714
8.1414579
8.0057051
8.0232874
8.0486299
8.0244905
8.0018439
8.101969
8.1265747
7.9472266
8.0827852
7.9652994
7.9416007
8.0367008
7.9840235
7.9652557
7.9989419
8.1661052
7.9821226
7.9861098
8.004495
8.009638
8.1304973
7.9714413
7.9638791
7.9568384
8.0723
7.959793
7.9472473
7.9547617
7.957752
8.0527566
7.9570917
8.0246744
7.9799513
8.0072405
7.988569
8.0016558
7.9905818
7.9844441
7.9821215
7.9842712
7.967918
8.0438545
8.0135458
8.1375028
7.9648563
7.9582319
7.9579998
7.9520652
7.9811909
8.0478377
7.9793351
8.0358257
8.1747849
7.9910252
8.0656224
7.9688709
8.0451284
8.0800502
8.0633545
8.0021782
8.0833068
8.0003605
8.0019791
8.0254419
7.9996209
7.9697847
7.972643
8.0371864
8.0427189
8.0191546
8.010506
7.9290151
7.9321746
8.076626
7.9354867
8.0592959
7.9602003
8.0634444
7.9553436
7.9473918
8.0632283
7.9832163
7.9011875
7.9625157
7.9358167
7.9507633
8.055777
8.1120481
7.9509187
7.9489502
8.029116
8.0696279
7.9971144
8.0040507
7.9995646
8.0669937
7.9313137
7.8904205
7.9505059
8.011076
7.9297339
7.9323618
7.9297236
8.0089264
7.9983593
8.0037233
7.9928975
7.9952139
7.9896446
7.9981006
8.0091915
8.0040543
8.0087039
8.0128305
8.012291
8.0148987
7.9990944
7.9997361
8.0048984
7.9811646
8.1577787
8.032604
8.0323752
8.0383069
8.0533723
8.0292997
7.9570156
7.9795972
7.9987941
7.9916464
8.0175908
8.0055605
7.9169639
7.9288683
7.8940887
7.9785283
7.9860368
7.9200061
7.9336385
7.972674
7.9582733
8.0156748
7.9640227
8.0226783
8.0363666
8.0292687
7.9219369
7.9125817
8.1338563
8.0009292
8.0098792
8.1421364
7.9924017
8.1179697
8.1127882
8.1178723
8.126296
7.998071
7.9992135
8.0142194
7.9935941
8.0334933
8.0151559
7.974277
8.123299
8.1018759
8.0187756
8.0189618
7.9921146
8.0753991
7.9715338
7.9922972
7.9694963
8.0963275
8.1272714
8.0939212
8.0208118
7.9908208
7.9850268
8.0423311
8.0460385
7.9641017
8.0500731
7.960116
7.9571986
7.9609392
7.9585197
8.0142372
7.9998531
7.9850485
7.9703467
8.1085153
8.0787706
7.9288779
8.0573444
7.9392137
7.9345107
8.0345707
7.9852897
7.9591336
7.9821885
8.1353845
8.1658518
7.9721166
8.0019035
8.0108813
8.2082435
8.1869513
7.953537
7.9501582
8.0521635
7.9589571
8.0759472
7.9498266
7.9501615
8.0302263
7.9563458
8.0088538
7.9651237
7.9839671
7.9871305
8.0013301
7.980257
7.9665367
7.9659187
7.9839647
7.9723982
8.002569
7.9480722
7.9927435
7.9520215
7.9494297
7.9530726
8.0094108
8.0271534
8.0470065
8.009137
8.0409417
8.0435015
8.1072339
8.0314634
7.9693605
8.1336224
7.9472272
7.9497954
7.9698989
7.9676862
7.9548666
7.9388756
7.9780832
8.0594722
7.9833852
8.0239946
8.1319905
7.9867218
8.0377955
7.9619255
8.0231244
8.0720685
8.0584543
7.9995428
8.0503275
7.9797969
8.0438758
8.0536951
8.0260933
7.9582843
7.9830726
8.0116076
8.0919351
7.9765719
7.9908567
7.9513854
7.9645241
8.0009648
7.9761816
7.9602502
7.9650834
7.9622831
7.9667453
8.0934453
8.032945
8.0381115
8.0034766
8.013427
8.0164188
7.9946693
7.9873218
7.9260281
7.937504
8.0572998
7.9431105
8.0468607
7.9657738
8.0556563
7.9425065
7.949365
7.9429562
7.9278006
7.9151285
7.9627657
7.930522
7.9248474
7.9241921
7.9519441
7.9264009
7.9583747
7.9455017
8.0025494
8.0036404
8.0209235
8.0046632
8.0818527
7.9437337
7.9757026
8.004672
8.0841363
7.9836006
7.9751311
8.0091109
8.0774284
8.0304352
7.9179167
7.9014198
7.9427743
7.981473
8.0024176
7.9941746
8.0107386
7.9957333
7.9877276
8.1332388
8.0066353
7.9648929
7.9541158
7.9310192
7.9565413
7.9914269
7.9189953
7.9284116
7.98627
7.9994463
8.0401858
7.9788108
7.9158535
7.9419321
8.1217967
7.9650898
8.0193618
8.0961967
8.0084665
8.0113617
8.0010197
8.013811
8.089737
8.1212471
8.0223439
8.0147448
8.0257409
8.0179168
7.9870992
8.0066769
7.9870256
8.1134255
7.9904416
8.0088081
8.0240303
8.0054141
7.9936052
8.07788
8.1048392
7.940066
8.0572647
7.9560529
7.9343564
8.022723
7.9696526
7.9547017
7.9825377
8.1288414
7.9728431
7.971017
7.9896905
7.9914514
8.0969326
7.9631701
7.9528005
7.9477845
8.0458254
7.950468
7.9414118
7.9452702
7.949267
8.0295581
7.9486764
8.0125857
7.9672339
7.9919189
7.9739913
7.9872549
7.9806857
7.9706548
7.9699272
7.9703125
7.9574171
8.0290159
7.9926077
8.0863527
7.9512287
7.9477875
7.9509303
7.9388617
7.9737612
8.0364471
7.9714183
8.0248958
8.1499634
7.9864073
8.0503684
7.9587121
8.0325716
8.0647866
8.0477649
7.9999157
8.0509852
7.9845684
7.9968808
8.0130873
7.9870318
7.961225
7.9644416
8.0178968
8.0276415
8.0000964
7.9899504
7.9232341
7.9253942
8.056742
7.9324935
8.0378052
7.9566015
8.0578796
7.9468786
7.9349854
8.0247958
7.9663875
7.8962809
7.9477588
7.9236311
7.9366086
8.0343038
8.0700898
7.9384649
7.9396376
8.0025106
8.0439495
7.9823081
7.9878573
7.9796855
8.0296044
7.9202064
7.8879408
7.9394163
7.9893287
7.9201538
7.9238963
7.9196621
7.9733486
7.9660448
7.9696555
7.9620972
7.9644852
7.9639137
7.9664957
7.9781294
7.9751868
7.9776942
7.979747
7.9793834
7.9819079
7.9670244
7.9674676
7.9751941
7.9730466
8.128084
8.0182626
8.0100396
8.0245453
8.0235715
7.9969267
7.9400523
7.9591402
7.9893365
7.9784773
7.9980176
7.9859761
7.9103082
7.9248497
7.8913078
7.9634241
7.965945
7.9114583
7.9306419
7.9601891
7.9475622
7.9989437
7.95055
7.9968435
7.9997156
7.9981154
7.9150414
7.9079152
8.0786115
7.9900679
7.9853555
8.1095614
7.9852337
8.077146
8.0717968
8.0806084
8.0872848
7.9807289
7.9793682
7.9944979
7.9757557
8.0087106
7.9870758
7.9577243
8.1009539
8.0654823
8.0002294
7.9988536
7.9728169
8.0631586
7.9518666
7.9737724
7.9558733
8.0577601
8.0849667
8.051254
8.0005413
7.9734885
7.9655212
8.015495
8.019279
7.952503
8.0251513
7.9492133
7.945639
7.9500383
7.9464393
7.996653
7.9814207
7.9641158
7.954984
8.0889624
8.0473043
7.9207994
8.0228743
7.9293645
7.9242341
8.0139321
7.9670612
7.9461554
7.9645125
8.0909293
8.1225775
7.9557661
7.9824854
7.9877271
8.1461814
8.1384246
7.9410864
7.9389817
8.0223541
7.9467466
8.0487458
7.9384614
7.9396173
8.0047794
7.9449866
7.9928397
7.9513518
7.9672185
7.969037
7.9820173
7.9670119
7.9521722
7.9518967
7.9660292
7.9575979
7.9870194
7.9333269
7.9783568
7.9389241
7.9327107
7.9379053
7.9842083
7.998039
8.0164647
7.9893161
8.0059409
8.0069454
8.0596087
7.9975322
7.9574082
8.0880211
7.9340903
7.9360347
7.9579255
7.9528557
7.9454715
7.9250659
7.9699515
8.0439944
7.9714387
8.0064289
8.0977763
7.9777
8.0185272
7.9534067
8.0109651
8.0543123
8.0406706
7.9939165
8.0128051
7.9696008
8.0243598
8.0323542
8.0043751
7.9414689
7.9627775
7.9818947
8.0831384
7.9562418
7.9663137
7.9371229
7.9484113
7.9801286
7.9617858
7.9469581
7.9533579
7.9505189
7.9554825
8.0613859
8.0130777
8.0042698
7.9782077
7.9943969
7.9948621
7.9702312
7.9614372
7.919782
7.9280755
8.0330003
7.9384174
8.0212083
7.9576446
8.0450324
7.9340639
7.9414289
7.9309092
7.9166802
7.9071277
7.9553253
7.921186
7.9137533
7.9128432
7.9394456
7.9159863
7.948155
7.9313489
7.9731552
7.9764975
8.000311
7.9809105
8.0485165
7.9337622
7.9609607
7.9890154
8.0427178
7.9663209
7.9596153
7.9843949
8.0509297
7.9940347
7.9102388
7.8969402
7.9337783
7.9599326
7.9688163
7.9630943
7.9745154
7.9641356
7.9803304
8.1006215
7.990741
7.9517256
7.9455422
7.9198708
7.9413401
7.9653938
7.9154892
7.9219728
7.9745855
7.970402
8.0013547
7.9614659
7.9090633
7.9330198
8.0762108
7.9560734
7.9845653
8.0569649
7.995146
7.9849884
7.9786791
7.9999272
8.0569568
8.0895237
8.0012493
7.9877842
8.0192271
7.9899199
7.9681387
7.9882393
7.9715684
8.0773376
7.9717426
7.9898888
7.9954167
7.9825074
7.9818882
8.0470103
8.0752791
7.9308303
8.0259827
7.9442528
7.9252595
8.0039508
7.9526857
7.9418585
7.9631614
8.0835211
7.9606095
7.9534228
7.971375
7.970125
8.0568924
7.9522503
7.9394581
7.9364992
8.0143661
7.9388192
7.933569
7.9336172
7.938379
8.0017144
7.9378768
7.9959519
7.951712
7.9730181
7.9566005
7.9693723
7.9675337
7.9541074
7.9548671
7.9536542
7.9444431
8.0093065
7.9683417
8.0335949
7.9358047
7.9352304
7.9414162
7.9245101
7.9632826
8.0201036
7.9605038
8.0093186
8.1159621
7.9790781
8.0292111
7.9458903
8.0151903
8.0433646
8.0266406
7.9957903
8.0145003
7.965527
7.9888635
7.9960948
7.9709452
7.950001
7.9533317
7.9941117
8.0076105
7.9774389
7.9666921
7.9159358
7.917067
8.0309071
7.9280815
8.011057
7.9510661
8.0485256
7.93614
7.9214569
7.987907
7.9487595
7.8911077
7.9325928
7.9114967
7.9223865
8.0100155
8.0278372
7.9255239
7.9293072
7.9755409
8.0157162
7.9657348
7.9698996
7.9590688
7.9931349
7.909046
7.8851424
7.9275707
7.9667675
7.9102537
7.9147999
7.9093849
7.9420224
7.9373588
7.9395611
7.9346641
7.9369484
7.9398164
7.9382318
7.9494358
7.9482028
7.9490607
7.9495541
7.9493493
7.9516453
7.9384099
7.9386893
7.9476277
7.9628939
8.0929553
8.0009802
7.9860746
8.0075158
7.9930689
7.9661129
7.9235239
7.9390344
7.9774449
7.9634798
7.9768385
7.9653079
7.9031907
7.9198067
7.8881445
7.9473226
7.9458074
7.9027136
7.9265291
7.9464251
7.9357664
7.980113
7.9363314
7.970765
7.9657513
7.9680437
7.9075679
7.902632
8.0265124
7.9768728
7.960866
8.0725996
7.9759887
8.0353278
8.0301743
8.0412935
8.0462641
7.9620982
7.9587618
7.9733197
7.9569269
7.9828393
7.9598428
7.9407075
8.0737898
8.027671
7.9798048
7.9772101
7.9529414
8.0468904
7.932719
7.9544952
7.9413272
8.0187049
8.0416087
8.0096764
7.9786673
7.9552002
7.9457867
7.987708
7.9913555
7.9397412
7.9984048
7.9371666
7.9331633
7.9379696
7.9335022
7.9771804
7.9618497
7.9433896
7.9390148
8.0646249
8.0142648
7.9121331
7.9889429
7.9189216
7.9136177
7.9912091
7.9482977
7.932518
7.9463031
8.0455945
8.0764272
7.9390119
7.9620905
7.9641572
8.0846114
8.0874643
7.9280501
7.9270758
7.9919201
7.9336868
8.019072
7.926412
7.9282185
7.9786326
7.9327111
7.9748498
7.9368292
7.9496282
7.950284
7.9617227
7.9523889
7.9371329
7.9371609
7.947545
7.9419832
7.9696608
7.9187827
7.9618306
7.9254415
7.9167135
7.9228604
7.9593082
7.9694527
7.9858108
7.9683048
7.972697
7.972604
8.0140201
7.9655907
7.9441627
8.0420742
7.9207748
7.922148
7.9447069
7.937407
7.9348683
7.9116254
7.9598968
8.0249764
7.9577399
7.9866072
8.0600589
7.9665504
7.9967721
7.9433924
7.9961271
8.0329329
8.019534
7.9861212
7.9773728
7.9575294
8.002208
8.0082785
7.9811446
7.9249729
7.9426084
7.9538219
8.0703896
7.9363867
7.9428279
7.9227967
7.9321425
7.958698
7.9463548
7.9330028
7.9404868
7.9376941
7.9429691
8.0272282
7.9910182
7.9719203
7.9535657
7.9738044
7.9721994
7.9466121
7.9373167
7.9127664
7.9180161
8.0064421
7.9324897
7.9940708
7.9478848
8.030802
7.9246812
7.9323071
7.9185773
7.9056504
7.8989818
7.9462882
7.9114758
7.9029067
7.9018515
7.9264298
7.9055752
7.9367586
7.9173535
7.9458758
7.9505892
7.9781813
7.9572525
8.0139924
7.9230503
7.9452727
7.9714638
8.0025853
7.9483389
7.9433465
7.9598008
8.0217323
7.9606102
7.9022525
7.892111
7.9239062
7.9389768
7.9390926
7.9354193
7.9426865
7.9360466
7.9708115
8.0640285
7.9729124
7.9376852
7.9356909
7.9087157
7.9260904
7.9409235
7.9111229
7.914699
7.9610289
7.9435335
7.9658281
7.9436441
7.9018743
7.923231
8.0309457
7.945545
7.952891
8.0175226
7.9795465
7.9591131
7.9561677
7.9836272
8.0223778
8.0541987
7.9786767
7.961316
8.010152
7.9626064
7.9487573
7.9684583
7.9549075
8.0391499
7.9523997
7.969579
7.9673203
7.9593639
7.9681353
8.0144473
8.0424383
7.9208431
7.9942517
7.9316338
7.9155775
7.9831929
7.9355542
7.9284904
7.9436743
8.0379761
7.9470955
7.9357865
7.9523466
7.948814
8.0168717
7.9401524
7.9257452
7.924583
7.9831225
7.9265201
7.9247404
7.9215079
7.9267289
7.9738915
7.9263179
7.9773127
7.9357584
7.9534374
7.9389506
7.9507665
7.9529613
7.9372342
7.9391557
7.9367065
7.9308516
7.9875912
7.9449182
7.9865922
7.9206424
7.9223275
7.9308413
7.9107345
7.9511608
8.0008989
7.9480831
7.9911468
8.0776137
7.9695995
8.0054174
7.9323431
7.9952799
8.0188293
8.003021
7.9896705
7.9796825
7.9461761
7.9785085
7.9771174
7.9537545
7.9376851
7.9409841
7.9697202
7.9856554
7.9547908
7.9441293
7.9080979
7.9083074
8.0031587
7.9226396
7.9835395
7.944007
8.0356194
7.924695
7.9084454
7.9560076
7.932386
7.8861069
7.9185713
7.9003935
7.9093849
7.9866423
7.9903545
7.9134195
7.9192668
7.9512001
7.9890952
7.9497966
7.9527382
7.9401187
7.9612605
7.8987307
7.8822934
7.9163209
7.9460248
7.9009305
7.9060601
7.8997799
7.9163933
7.9136711
7.9148663
7.911945
7.9139967
7.9189239
7.9147471
7.9249855
7.9249603
7.9246695
7.924114
7.9240214
7.9260487
7.9146894
7.9148499
7.9240673
7.9522725
8.0581263
7.983443
7.9637505
7.9900744
7.9655188
7.9394266
7.9087261
7.9210443
7.9650735
7.9488993
7.95693
7.9461356
7.8963114
7.9144667
7.8849424
7.9321678
7.9275751
7.8944963
7.9219123
7.9332351
7.9244216
7.9619772
7.9229978
7.9472502
7.9369185
7.9417522
7.9003118
7.8973517
7.9823932
7.9633537
7.9388935
8.0373241
7.9659364
7.9977645
7.9929703
8.0052664
8.0087293
7.9444873
7.9397107
7.9533267
7.9393346
7.9590623
7.9359051
7.9250152
8.0460368
7.9934223
7.9603226
7.9568454
7.9346918
8.0289778
7.9156837
7.9366773
7.927558
7.9837518
8.002586
7.9733807
7.95799
7.9380748
7.9277335
7.9623168
7.9657335
7.9273796
7.9734475
7.9254748
7.9212345
7.9262701
7.9211914
7.9585525
7.9435688
7.9247716
7.9241662
8.0394552
7.984097
7.903807
7.9590462
7.9090033
7.9036743
7.9696259
7.9310223
7.9196899
7.9295163
8.0050628
8.0339359
7.9235805
7.9431273
7.9427332
8.0308243
8.0410182
7.915792
7.9157673
7.9643965
7.9212932
7.9911593
7.9149944
7.9172975
7.9548494
7.9209803
7.9575279
7.9231664
7.9332251
7.9329248
7.9428822
7.9382983
7.9230616
7.9233544
7.9304978
7.9273461
7.9528699
7.9055909
7.9446248
7.9129293
7.9025532
7.90924
7.9371207
7.9441548
7.9584309
7.9487819
7.9440923
7.9433022
7.9749189
7.9381458
7.931239
8.0010534
7.9084961
7.9093767
7.9318606
7.923008
7.924466
7.8995447
7.9494349
8.0053743
7.944296
7.9673722
8.0245505
7.954992
7.9757617
7.9333112
7.9807766
8.0111884
7.9983123
7.9771666
7.9469825
7.9453146
7.9804879
7.9848576
7.9594298
7.9101323
7.9244515
7.9295698
8.0551593
7.9186659
7.9222547
7.9097005
7.9172821
7.939078
7.9317424
7.9198747
7.928079
7.925388
7.9308152
7.9957048
7.9698625
7.943895
7.9318138
7.9544889
7.9512258
7.9257313
7.9165844
7.9058363
7.9083897
7.9813747
7.9261656
7.969028
7.9379288
8.0151062
7.9155376
7.9232267
7.9071188
7.8955332
7.8913207
7.9369592
7.9023771
7.8930824
7.8919759
7.9141998
7.8959926
7.9256394
7.9046243
7.9225768
7.9279803
7.9574873
7.9360345
7.9826443
7.9128175
7.9305087
7.9545767
7.9677471
7.931687
7.9281733
7.9377866
7.9941365
7.9324357
7.8946677
7.8873755
7.9143615
7.9203778
7.9146541
7.9124921
7.916713
7.9128227
7.9605464
8.0292466
7.9557379
7.9244336
7.9259081
7.8984494
7.9121656
7.9197673
7.9065123
7.9075032
7.9476516
7.9206248
7.9359989
7.9272588
7.8949682
7.9137606
7.9912284
7.9349925
7.9263139
7.9825228
7.9639762
7.9361796
7.935809
7.9673516
7.9907164
8.0207813
7.9575784
7.9378484
7.9996008
7.9384961
7.9310213
7.9498168
7.9391029
8.0039384
7.9345243
7.9505053
7.9424591
7.9384154
7.9543513
7.9845713
8.0113194
7.9112357
7.9657107
7.9196439
7.9063277
7.9633976
7.9199263
7.9159929
7.9260052
7.9976852
7.9340503
7.9197863
7.9347501
7.9296175
7.981412
7.9284247
7.9130084
7.9133273
7.9553651
7.9149143
7.9160498
7.9101568
7.9156436
7.9490254
7.9153139
7.9593924
7.921004
7.9353849
7.9227942
7.9335544
7.9388953
7.9217192
7.92452
7.9211445
7.918112
7.9668379
7.9248635
7.9482429
7.9069625
7.9103384
7.9205638
7.8985258
7.93914
7.9818077
7.9358878
7.9731036
8.0408504
7.9593945
7.9825299
7.9195785
7.9757527
7.9947255
7.9803479
7.9822313
7.9496142
7.9285055
7.9673657
7.9589239
7.9375529
7.925809
7.9289789
7.9474325
7.9647867
7.9343649
7.924146
7.9005439
7.8999567
7.9772762
7.9169136
7.9585494
7.9364301
8.0209375
7.9138156
7.8968811
7.9312064
7.918805
7.8817236
7.906936
7.8911882
7.8986767
7.9671593
7.9607836
7.9032382
7.9106449
7.9315899
7.9671891
7.9363626
7.938347
7.9245467
7.9362337
7.8900894
7.8796727
7.9067729
7.9290471
7.8930055
7.8985388
7.8916638
7.8974125
7.8959528
7.8965223
7.8949076
7.8966528
7.9024672
7.8970556
7.9060741
7.9067857
7.9058129
7.9046823
7.9046619
7.9064189
7.8968784
7.8969625
7.9058029
7.9428901
8.0288705
7.9683022
7.9453849
7.9750216
7.9433716
7.9185403
7.8967459
7.9065233
7.9542342
7.9365236
7.9404253