/*--------------------------------*- C++ -*----------------------------------*\
  =========                 |
  \\      /  F ield         | OpenFOAM: The Open Source CFD Toolbox
   \\    /   O peration     | Website:  https://openfoam.org
    \\  /    A nd           | Version:  8
     \\/     M anipulation  |
\*---------------------------------------------------------------------------*/
FoamFile
{
    version     2.0;
    format      ascii;
    class       volScalarField;
    location    "3600/vegetation";
    object      T;
}
// * * * * * * * * * * * * * * * * * * * * * * * * * * * * * * * * * * * * * //

dimensions      [0 0 0 1 0 0 0];

internalField   uniform 297;

boundaryField
{
    left
    {
        type            mapped;
        field           T;
        setAverage      0;
        average         0;
        interpolationScheme cell;
        value           nonuniform List<scalar> 
690
(
298.34814
298.69568
299.05279
299.39938
299.76097
300.14295
300.56592
301.08152
301.9035
303.58751
306.50593
309.35444
310.65677
311.15528
311.44971
311.7118
311.94739
312.17833
312.41415
312.66977
312.9194
313.21613
313.55694
313.92986
314.34091
314.8188
315.30256
315.71182
316.05078
316.3256
316.56858
316.80518
317.01714
317.20227
317.38265
317.54214
317.70979
317.84893
318.00194
318.12307
318.20228
318.24493
318.27771
318.26627
318.20413
318.0171
317.31228
316.22873
315.422
315.19663
315.181
315.32067
315.35112
315.46344
315.60889
315.75419
315.85152
315.81314
315.54322
314.99596
314.22459
313.33626
312.50022
311.79525
311.2577
310.88642
310.65186
310.55528
310.56218
298.59296
298.96869
299.3369
299.71653
300.12675
300.59513
301.16654
301.93961
303.17284
305.25437
308.00477
309.87406
310.63155
310.95099
311.16854
311.3434
311.47948
311.58785
311.71118
311.91162
312.18056
312.54771
313.03864
313.65306
314.36083
315.10184
315.73351
316.20735
316.55216
316.82352
317.05819
317.26548
317.45071
317.62046
317.78273
317.94063
318.09283
318.22152
318.33893
318.42296
318.46693
318.46927
318.43934
318.37811
318.26938
318.02946
317.51974
316.75223
316.05038
315.61215
315.43701
315.43867
315.50545
315.63671
315.8051
315.96593
316.05993
316.01859
315.77178
315.28711
314.5839
313.76396
312.94045
312.22343
311.65223
311.24206
310.97747
310.84393
310.83561
298.80388
299.21259
299.60347
300.03215
300.52902
301.12619
301.88829
302.94802
304.51766
306.67668
308.82586
309.89107
310.34644
310.53565
310.70524
310.83787
310.94606
311.03208
311.13041
311.30576
311.60167
312.02055
312.61046
313.3844
314.3408
315.37417
316.24952
316.82704
317.16977
317.38634
317.55488
317.71056
317.8651
318.02139
318.17876
318.33273
318.47632
318.5995
318.68327
318.73829
318.74504
318.70827
318.63457
318.52952
318.37687
318.12778
317.73614
317.22179
316.71517
316.31298
316.02136
315.87108
315.86679
315.96967
316.14247
316.31227
316.41248
316.38349
316.17991
315.75111
315.12732
314.3645
313.56371
312.83396
312.23282
311.79097
311.50865
311.36333
311.34426
298.99029
299.42294
299.8695
300.37752
300.97855
301.71067
302.64148
303.87433
305.49439
307.36837
308.91709
309.66754
309.96007
310.11415
310.25614
310.36889
310.45076
310.51428
310.58459
310.70152
310.97475
311.44703
312.13405
313.04264
314.19307
315.50079
316.61131
317.23121
317.53966
317.71464
317.8561
317.99968
318.15323
318.31521
318.4805
318.63981
318.78345
318.90064
318.98007
319.00571
318.99206
318.93278
318.8371
318.71057
318.54621
318.33048
318.02857
317.66529
317.29213
316.96378
316.69703
316.51035
316.44776
316.49919
316.6328
316.78689
316.88328
316.86304
316.68855
316.3154
315.77649
315.08041
314.33609
313.61411
313.00712
312.55091
312.25728
312.11152
312.08375
299.15447
299.62774
300.13822
300.72194
301.40592
302.22526
303.23016
304.47071
305.93725
307.46147
308.72077
309.33254
309.60347
309.74004
309.85212
309.93912
309.99792
310.03423
310.06814
310.13966
310.35766
310.81786
311.5721
312.60262
313.92971
315.51298
316.79936
317.41937
317.69697
317.85233
317.98888
318.13741
318.30103
318.4748
318.65078
318.81781
318.96553
319.08476
319.15697
319.18992
319.17861
319.12336
319.03155
318.91046
318.76957
318.58451
318.35813
318.1011
317.83458
317.58174
317.36733
317.20714
317.13819
317.16129
317.24938
317.36605
317.44307
317.42443
317.27406
316.95301
316.48356
315.88431
315.21056
314.54935
313.959
313.51138
313.21659
313.06544
313.02421
299.29644
299.81777
300.38207
301.01384
301.73522
302.57271
303.55521
304.6961
305.9621
307.24896
308.27007
308.89715
309.22063
309.37356
309.47286
309.54079
309.57465
309.57884
309.56252
309.57812
309.7373
310.18085
310.966
312.09151
313.57967
315.34003
316.79384
317.4871
317.77277
317.91476
318.04792
318.19759
318.36595
318.54555
318.7276
318.8999
319.05174
319.166
319.25402
319.29482
319.29837
319.26573
319.19811
319.11154
318.99349
318.85359
318.69262
318.51699
318.33766
318.16719
318.01906
317.90738
317.85849
317.86834
317.91803
317.99342
318.04641
318.02678
317.89959
317.6412
317.24433
316.749
316.16074
315.58286
315.05809
314.63013
314.33996
314.17156
314.10605
299.43189
299.98562
300.57677
301.22281
301.94059
302.74686
303.65324
304.66328
305.73587
306.76637
307.64249
308.26642
308.64808
308.86478
308.99307
309.06823
309.09809
309.09329
309.04596
309.03958
309.18617
309.61216
310.39766
311.56807
313.18453
315.13244
316.75588
317.52636
317.83543
317.97558
318.10235
318.24304
318.40127
318.57046
318.74588
318.91468
319.05762
319.18457
319.28095
319.3437
319.36937
319.36353
319.32632
319.27415
319.19503
319.10179
318.99807
318.88906
318.78108
318.68103
318.59709
318.53787
318.51624
318.52244
318.55067
318.59773
318.63336
318.61586
318.51436
318.31202
317.99872
317.60163
317.14494
316.6503
316.20097
315.8202
315.5322
315.33652
315.22505
299.5624
300.1248
300.71744
301.35544
302.04784
302.80168
303.61833
304.48299
305.36497
306.20667
306.93885
307.50875
307.91181
308.18138
308.35967
308.47492
308.54006
308.5633
308.56746
308.62154
308.79275
309.19535
309.94972
311.12049
312.80356
314.91909
316.76603
317.60495
317.91421
318.05689
318.16578
318.29803
318.44319
318.59679
318.76168
318.91381
319.06198
319.18907
319.29057
319.36412
319.40983
319.42704
319.41934
319.39842
319.3545
319.30102
319.2424
319.18332
319.12805
319.08058
319.04841
319.03384
319.03051
319.04316
319.07099
319.10841
319.13924
319.12961
319.05613
318.90631
318.6801
318.37357
318.01974
317.6366
317.25383
316.90949
316.62093
316.38911
316.24093
299.65627
300.22513
300.81411
301.4386
302.103
302.8064
303.54224
304.29603
305.04277
305.74707
306.37029
306.88438
307.28396
307.58313
307.804
307.96649
308.08584
308.17629
308.25914
308.37781
308.5747
308.95266
309.66545
310.82377
312.53493
314.7579
316.81363
317.67351
318.049
318.18525
318.26082
318.36536
318.4873
318.62805
318.78703
318.93403
319.07849
319.20446
319.30834
319.38819
319.44388
319.47656
319.48849
319.48233
319.47246
319.4471
319.41918
319.39329
319.37287
319.35695
319.35191
319.35998
319.37808
319.40504
319.43938
319.47789
319.51235
319.51344
319.46532
319.35659
319.19147
318.9705
318.6939
318.39213
318.07332
317.76319
317.45378
317.18826
316.98913
299.71092
300.29428
300.88454
301.49981
302.14594
302.82078
303.51514
304.21333
304.89448
305.53446
306.10886
306.59956
307.00081
307.31887
307.56689
307.75952
307.91051
308.0341
308.15346
308.30559
308.51431
308.87362
309.56413
310.71775
312.44014
314.69425
316.86954
317.71799
318.14932
318.26189
318.32352
318.41204
318.53024
318.6593
318.81837
318.96463
319.10826
319.23417
319.33932
319.4221
319.48259
319.522
319.54271
319.548
319.55205
319.54103
319.52797
319.51658
319.50981
319.50925
319.51767
319.53618
319.56348
319.59797
319.63775
319.6796
319.71825
319.72756
319.69525
319.60945
319.47775
319.2995
319.0688
318.8101
318.51948
318.20568
317.88648
317.59936
317.3948
)
;
    }
    right
    {
        type            mapped;
        field           T;
        setAverage      0;
        average         0;
        interpolationScheme cell;
        value           nonuniform List<scalar> 
690
(
298.77037
299.41177
299.97967
300.47204
300.90149
301.3001
301.67769
302.10773
302.98123
304.86132
307.19927
308.39373
308.66155
308.76213
308.67294
308.54814
308.43625
308.41465
308.39254
308.37047
308.41489
308.34393
308.27987
308.27046
308.26658
308.27798
308.32925
308.44047
308.58585
308.75118
308.92836
309.11448
309.3112
309.50725
309.69858
309.87862
310.04968
310.21157
310.36785
310.52844
310.72246
310.97345
311.29985
311.70929
312.20433
312.75301
313.33852
313.93778
314.53023
315.24504
316.07526
316.70704
317.00222
317.12988
317.18053
317.20125
317.18578
317.12843
317.02788
316.87022
316.65545
316.40212
316.13476
315.87257
315.65476
315.48901
315.37009
315.30785
315.22811
299.17298
299.80505
300.36515
300.84759
301.29727
301.74458
302.19716
302.80847
304.00314
306.08083
307.79048
308.48453
308.62846
308.65272
308.56674
308.48654
308.4239
308.37728
308.33672
308.30548
308.28817
308.26664
308.25131
308.24426
308.24417
308.25119
308.27169
308.3183
308.40475
308.51589
308.64885
308.80619
308.98622
309.18429
309.39739
309.62779
309.86641
310.11064
310.37659
310.68464
311.03298
311.42563
311.87059
312.3785
312.93506
313.52006
314.11083
314.69187
315.25381
315.80989
316.32687
316.7143
316.95145
317.07784
317.15539
317.19509
317.2079
317.18858
317.13005
317.02513
316.86388
316.647
316.39063
316.12283
315.91088
315.75875
315.65192
315.58295
315.53294
299.51045
300.17613
300.73332
301.24543
301.77213
302.31339
302.92266
303.79068
305.2152
306.97801
308.05564
308.48179
308.59033
308.59757
308.53113
308.45665
308.38962
308.32981
308.27973
308.24105
308.214
308.19451
308.18302
308.17922
308.18045
308.19144
308.21581
308.25837
308.32677
308.41765
308.53292
308.6807
308.85942
309.07527
309.33088
309.61445
309.94273
310.31662
310.74263
311.20461
311.68912
312.19318
312.72263
313.2744
313.83295
314.37309
314.87379
315.32377
315.73057
316.10138
316.43135
316.68888
316.87012
316.99396
317.0727
317.13545
317.17508
317.19023
317.17411
317.11994
317.02103
316.87726
316.68902
316.4731
316.27086
316.11144
315.99805
315.91688
315.8574
299.81401
300.5186
301.10079
301.68219
302.29788
302.94532
303.70108
304.68587
305.98349
307.30134
308.08621
308.4283
308.53205
308.53648
308.47608
308.39976
308.32512
308.25745
308.20035
308.15599
308.12474
308.10521
308.0971
308.09584
308.1011
308.12082
308.15774
308.21479
308.29294
308.38576
308.49136
308.63792
308.83269
309.08072
309.41396
309.84303
310.37795
310.94681
311.49573
312.02577
312.55149
313.08157
313.61205
314.12243
314.58521
314.98523
315.33181
315.63765
315.91949
316.17445
316.39746
316.58134
316.72763
316.84572
316.9447
317.01923
317.08674
317.13418
317.15494
317.14413
317.09787
317.01128
316.88889
316.73595
316.57314
316.42634
316.30815
316.219
316.15623
300.09378
300.82902
301.45873
302.11242
302.80307
303.53926
304.34067
305.27319
306.3263
307.33077
307.99415
308.32156
308.42149
308.42992
308.38006
308.31
308.23675
308.16818
308.10953
308.06454
308.03509
308.02101
308.01667
308.01797
308.03228
308.06516
308.11736
308.19025
308.28233
308.38555
308.49893
308.65565
308.87395
309.21668
309.76108
310.46668
311.18774
311.83416
312.40194
312.9238
313.42345
313.89942
314.32816
314.6883
314.98389
315.24397
315.47471
315.68439
315.88349
316.0714
316.24328
316.39599
316.53172
316.6554
316.7702
316.87487
316.96555
317.02926
317.07941
317.1001
317.09099
317.05115
316.98088
316.8814
316.76395
316.64597
316.53859
316.45323
316.39277
300.33519
301.10098
301.78101
302.48692
303.21613
303.9684
304.73988
305.55991
306.4067
307.21014
307.78402
308.09984
308.22004
308.24954
308.22531
308.17662
308.11942
308.06259
308.01273
307.97581
307.95631
307.94953
307.94824
307.95745
307.9851
308.03232
308.09856
308.18372
308.28574
308.40002
308.53551
308.71946
309.03603
309.5985
310.4265
311.33152
312.12317
312.75669
313.27516
313.72441
314.11836
314.44659
314.70566
314.91798
315.09052
315.24034
315.38494
315.53348
315.68867
315.84693
316.00239
316.15104
316.2928
316.42968
316.56228
316.68776
316.80042
316.89447
316.95732
317.00761
317.02611
317.01902
316.98661
316.92952
316.85192
316.76523
316.68305
316.61232
316.56051
300.53958
301.32515
302.04304
302.77108
303.49755
304.22139
304.93177
305.64103
306.34032
306.96425
307.44778
307.75425
307.91685
307.98471
308.00512
307.99686
307.97259
307.94267
307.91433
307.89755
307.89223
307.89135
307.89867
307.92147
307.9627
308.02198
308.09835
308.19112
308.29984
308.42677
308.59203
308.84983
309.32312
310.14473
311.20531
312.21391
312.99535
313.55661
313.96755
314.28002
314.5164
314.6915
314.82024
314.91373
314.99196
315.0721
315.16633
315.28086
315.41569
315.56571
315.72365
315.88333
316.04115
316.19595
316.34703
316.4915
316.62353
316.73704
316.82975
316.8953
316.93798
316.95404
316.94798
316.92087
316.87623
316.81997
316.76014
316.70519
316.66352
300.70576
301.49524
302.23298
302.95943
303.66263
304.34407
304.99151
305.60948
306.17957
306.68058
307.08093
307.36851
307.55927
307.68119
307.7561
307.79255
307.81387
307.82195
307.8249
307.82972
307.84103
307.85816
307.88189
307.91494
307.96384
308.03041
308.1125
308.20951
308.32349
308.46466
308.66538
309.01959
309.67699
310.72728
311.93941
312.97625
313.69193
314.13329
314.40126
314.57193
314.67533
314.73359
314.76657
314.78975
314.81794
314.86376
314.93316
315.03052
315.15637
315.30509
315.46796
315.63744
315.80901
315.9803
316.14935
316.31236
316.46254
316.59378
316.70487
316.78492
316.85605
316.89235
316.90631
316.90034
316.87753
316.84987
316.80796
316.76805
316.73573
300.82876
301.61445
302.35936
303.07446
303.75134
304.38712
304.98926
305.53901
306.03384
306.46217
306.81413
307.08911
307.29643
307.44986
307.562
307.64245
307.68928
307.7272
307.76513
307.79815
307.82552
307.85152
307.8829
307.92404
307.98056
308.05213
308.13748
308.23744
308.35689
308.51321
308.76394
309.20578
310.02198
311.23243
312.52181
313.53995
314.16
314.47663
314.62417
314.6796
314.68918
314.67897
314.66753
314.65963
314.66222
314.69034
314.74616
314.83317
314.95272
315.0998
315.26562
315.44188
315.6234
315.80776
315.99234
316.17228
316.33975
316.48851
316.6174
316.72451
316.80091
316.86461
316.89097
316.89894
316.89806
316.87373
316.84323
316.81206
316.78566
300.90944
301.69775
302.44326
303.14609
303.80438
304.41595
304.98915
305.50613
305.968
306.3692
306.70673
306.98193
307.20028
307.36968
307.49857
307.59443
307.66331
307.70361
307.74077
307.77315
307.80702
307.84586
307.8916
307.94549
308.00911
308.08383
308.17106
308.27341
308.39778
308.56613
308.8449
309.34436
310.24809
311.53269
312.85063
313.84811
314.38822
314.62916
314.70558
314.70943
314.68049
314.64585
314.61804
314.59989
314.59262
314.61292
314.66223
314.74456
314.86073
315.00612
315.17272
315.35248
315.53978
315.73173
315.92558
316.11579
316.294
316.45422
316.5947
316.71478
316.80198
316.87761
316.91223
316.92848
316.93546
316.91822
316.89357
316.86054
316.83939
)
;
    }
    back
    {
        type            mapped;
        field           T;
        setAverage      0;
        average         0;
        interpolationScheme cell;
        value           nonuniform List<scalar> 
590
(
309.42359
309.75503
310.36855
311.24076
312.34601
313.60807
314.90727
316.08072
316.94199
317.38648
309.44025
309.7633
310.36478
311.24855
312.35807
313.61972
314.91619
316.08931
316.95678
317.40921
309.59059
309.8976
310.48391
311.35267
312.44604
313.69122
314.97597
316.14471
317.00888
317.4796
309.80332
310.09551
310.67085
311.51567
312.5831
313.80495
315.07475
316.23706
317.10464
317.57196
310.04778
310.32755
310.88339
311.70179
312.74042
313.93674
315.19698
316.33921
317.20593
317.65392
310.27993
310.55023
311.08842
311.88136
312.89137
314.05925
315.29192
316.40697
317.25336
317.68875
310.47637
310.74042
311.26352
312.03378
313.01541
314.14784
315.3368
316.41207
317.21611
317.62369
310.62248
310.8829
311.39309
312.14195
313.09184
314.1768
315.30127
316.31432
317.04303
317.40732
310.70714
310.96511
311.46177
312.18585
313.09537
314.12729
315.15163
316.07297
316.69412
316.99201
310.72298
310.97428
311.4518
312.14237
313.00146
313.95647
314.87285
315.65373
316.13434
316.34346
310.66213
310.89886
311.34853
311.99333
312.78355
313.63969
314.42553
315.03642
315.36802
315.48343
310.521
310.72586
311.13568
311.71883
312.422
313.16486
313.80845
314.24231
314.43994
314.4936
310.25827
310.42739
310.80464
311.32271
311.93035
312.55538
313.07852
313.39903
313.5174
313.5499
309.659
309.94548
310.35265
310.82497
311.34404
311.86733
312.30455
312.57766
312.69934
312.76544
306.45437
309.09763
309.77407
310.24953
310.70263
311.15282
311.54906
311.83546
312.00954
312.10417
297
308.52964
309.19051
309.63963
310.04369
310.43659
310.82233
311.15594
311.39498
311.52334
304.63058
307.74034
308.59817
309.02527
309.37004
309.72795
310.11198
310.5016
310.8275
311.01075
297
307.43898
308.07598
308.40907
308.69312
309.03015
309.44102
309.87922
310.27937
310.5394
304.42952
306.78862
307.44879
307.73517
308.00573
308.34238
308.76594
309.27533
309.76525
310.0983
297
305.93849
306.58275
306.8973
307.20393
307.59949
308.10334
308.69539
309.28276
309.68487
297
304.18278
305.16636
305.66882
306.14341
306.70869
307.38198
308.12007
308.82522
309.29712
297
297
302.82229
303.86374
304.73009
305.61901
306.57163
307.53794
308.38581
308.92829
297
297
297
300.83139
302.86257
304.22484
305.67323
306.94201
307.95466
308.54536
297
297
297
297
300.67709
297
303.81238
297
307.5136
308.12518
297
297
297
297
300.11505
297
297
297
307.05033
307.58099
297
297
297
297
297
301.62944
297
305.44036
306.27958
306.6648
297
297
297
298.75423
300.75512
302.07713
303.59007
304.67031
305.34905
305.70783
297.3927
297
297
298.69848
300.53051
301.74764
302.7879
303.67588
304.23275
304.54277
297.42285
297
297
298.5224
300.0913
301.09857
301.89553
302.67408
303.08976
303.3008
297.39316
297
297
297
299.38169
300.15215
300.49659
301.74272
302.15928
302.35942
297.31553
297
297
297
297
298.94316
297
300.99784
301.50538
301.77199
297
297
297
297
297
297
298.90382
300.3048
301.08811
301.49656
297
297
297
297
297
297
297
299.68778
300.82412
301.40375
297
297
297
297
297
297
297
297
297
301.37096
297
297
297
297
297
297
297
297
297
301.21706
297
297
297
297
297
297
297
297
300.87849
297
297
297
297
297
297
297
297
297
301.70399
302.94891
297
297
297
297
297
297
297
300.71106
297
305.09849
297
297
297
297
297
297
299.72176
297
304.35503
306.01265
297
297
297
297
297
297
297
303.34282
297
306.9951
297
297
297
297
297
297
302.50297
305.5579
307.02151
307.60594
297
297
297
297
302.32388
303.76145
304.4844
306.77526
307.82046
308.24839
297
297
301.16195
303.40529
304.63877
305.76833
306.93796
307.87841
308.59952
308.94638
297
303.95413
304.82629
305.55606
306.25526
306.99722
307.81618
308.66402
309.35171
309.70413
306.45397
306.41841
306.63106
306.90975
307.30188
307.84574
308.57807
309.4364
310.14723
310.52905
307.73293
307.59291
307.60566
307.73031
308.02511
308.55293
309.33968
310.25913
310.98256
311.36719
308.23414
308.15376
308.17754
308.33991
308.67821
309.2948
310.17553
311.12777
311.81475
312.17461
308.56534
308.57403
308.69472
308.96649
309.43483
310.15359
311.08752
312.02262
312.65161
312.96541
308.92846
309.06499
309.33636
309.77056
310.37004
311.13068
312.02906
312.87173
313.42884
313.70384
309.4113
309.6915
310.16167
310.76812
311.45683
312.17323
312.92675
313.60968
314.08235
314.33262
310.10338
310.51721
311.17006
311.91423
312.623
313.23775
313.76575
314.27056
314.64915
314.86816
310.92017
311.45408
312.246
313.06053
313.72923
314.21306
314.56157
314.87989
315.16173
315.33813
311.88035
312.41922
313.2469
314.04482
314.66102
315.03139
315.25662
315.43846
315.61018
315.73944
312.93566
313.38757
314.12091
314.82148
315.34686
315.63583
315.78299
315.89574
315.99333
316.08365
313.88431
314.23859
314.8258
315.39843
315.82882
316.06294
316.17459
316.23259
316.29039
316.35684
314.58598
314.88882
315.37169
315.83559
316.16872
316.35969
316.44086
316.47922
316.50901
316.56289
315.09284
315.38528
315.7921
316.15872
316.41532
316.55823
316.61933
316.64327
316.66201
316.71042
315.27865
315.64377
316.03906
316.35165
316.5607
316.67838
316.72882
316.74721
316.76162
316.80694
314.91197
315.60932
316.08873
316.40891
316.61556
316.72762
316.77807
316.79735
316.81936
316.85578
)
;
    }
    front
    {
        type            mapped;
        field           T;
        setAverage      0;
        average         0;
        interpolationScheme cell;
        value           uniform 298.15;
    }
    bottom
    {
        type            mapped;
        field           T;
        setAverage      0;
        average         0;
        interpolationScheme cell;
        value           nonuniform List<scalar> 
11248
(
298.34815
298.6957
299.05281
299.39939
299.76099
300.14296
300.56594
301.08153
301.90352
303.58753
306.50594
309.35445
310.65676
311.15527
311.4497
311.71178
311.94739
312.17833
312.41415
312.66978
312.91941
313.21614
313.55696
313.92987
314.34094
314.81882
315.30259
315.71184
316.05079
316.32562
316.56859
316.8052
317.01715
317.20228
317.38266
317.54215
317.70981
317.84894
318.00196
318.12308
318.20229
318.24493
318.27771
318.26628
318.20414
318.01711
317.31235
316.22884
315.42211
315.19671
315.18106
315.32072
315.35118
315.4635
315.60895
315.75426
315.85159
315.81319
315.54324
314.99596
314.22457
313.33621
312.50015
311.79516
311.25759
310.88629
310.65172
310.55514
310.56203
298.34204
298.67761
299.02224
299.3564
299.7057
300.07224
300.48413
300.99617
301.86403
303.71627
306.85474
309.23556
310.11614
310.50132
310.88723
311.23709
311.55551
311.85132
312.1492
312.45234
312.7327
313.04201
313.38142
313.74181
314.12263
314.55746
315.0077
315.3999
315.72663
316.0199
316.27893
316.53344
316.78086
317.00709
317.20696
317.41945
317.5994
317.7733
317.88922
317.97568
318.05804
318.11441
318.13067
318.11505
317.97678
317.49277
316.34022
315.11688
314.58646
314.47613
314.62536
314.83076
315.03448
315.224
315.31993
315.42181
315.51874
315.52264
315.35924
314.9639
314.29236
313.48375
312.6349
311.9003
311.32937
310.92778
310.67124
310.55686
310.55264
298.31834
298.63048
298.9525
299.26227
299.58329
299.92239
300.3018
300.77325
301.65677
303.67543
307.05403
308.74624
309.23993
309.52822
309.96311
310.37534
310.77505
311.13132
311.50638
311.88262
312.22308
312.55713
312.87962
313.20815
313.53668
313.90993
314.31126
314.66721
314.99925
315.31305
315.61638
315.94161
316.25084
316.53103
316.79407
317.03221
317.26073
317.46337
317.58684
317.7021
317.76426
317.76891
317.74559
317.61683
317.15598
316.09611
314.66337
313.87165
313.70134
313.92109
314.28353
314.65983
314.92766
315.16533
315.17272
315.14942
315.11271
315.0726
314.86189
314.60033
314.15014
313.51332
312.75976
312.05749
311.48012
311.06057
310.78783
310.65706
310.64066
298.2796
298.55952
298.85172
299.13868
299.41762
299.71431
300.05108
300.43603
301.1979
303.15519
306.67866
308.02207
308.34199
308.54672
308.94243
309.34637
309.76855
310.59116
310.80345
311.17978
311.27766
311.64605
311.98096
312.30531
312.59428
312.91976
313.25769
313.58318
313.91026
314.2609
314.6062
314.99474
315.34365
315.68135
316.00551
316.26152
316.52313
316.71706
316.89803
316.954
316.96549
316.91975
316.73085
316.27826
315.27537
313.96275
313.12908
313.05999
313.33391
313.76125
314.22964
314.65507
314.9627
315.02849
314.92621
314.86448
314.71429
314.52453
314.2967
314.03038
313.6844
313.3054
312.75961
312.15632
311.62989
311.22431
310.95242
310.81447
310.78964
298.23507
298.48231
298.75549
299.0289
299.29015
299.54848
299.83177
300.12128
300.62096
301.95073
305.33832
307.23812
307.57175
307.83196
307.95401
309.11201
309.33577
309.56531
309.77988
310.1434
310.53295
310.86119
311.11932
311.14186
311.42793
311.73195
312.02826
312.35317
312.68804
313.06993
313.45833
313.87697
314.27315
314.64286
314.96149
315.22944
315.42682
315.58449
315.62923
315.60894
315.57856
315.42855
314.96746
314.19178
313.00509
312.29679
312.36378
312.77724
313.27769
313.74741
314.24848
314.6925
314.71251
314.66801
314.54821
314.28544
314.05808
313.88475
313.71421
313.51755
313.29621
313.01019
312.65475
312.17484
311.73656
311.37535
311.12399
310.99116
310.96368
298.1978
298.43961
298.72272
299.01368
299.29197
299.55313
299.81446
300.05522
300.32737
300.92713
302.81792
305.18031
306.80274
307.89466
308.05324
308.47318
308.97351
308.69873
309.00657
309.66503
309.79975
310.05944
310.30099
310.52342
310.75784
311.05689
311.20333
311.55312
311.94409
312.33988
312.7831
313.19971
313.59834
313.9295
314.17533
314.35032
314.28927
314.34902
314.12416
314.03722
313.66207
313.06447
312.10611
311.51422
311.59147
312.15285
312.76711
313.30224
313.76318
314.30905
314.4047
314.40961
314.32005
314.06529
313.81196
313.64734
313.5453
313.44996
313.32127
313.11039
312.86964
312.53911
312.16236
311.79896
311.49308
311.27452
311.15649
311.13184
298.19918
298.45354
298.80616
299.17462
299.53395
299.84878
300.10207
300.27361
300.44919
300.77011
301.64239
303.07232
304.74184
306.72879
308.16021
308.2806
308.74558
309.23103
309.66431
309.77904
310.08998
310.44502
310.64495
311.01776
311.39882
311.84474
312.29154
312.6563
312.96829
313.12979
313.03357
313.06848
312.88098
312.70765
312.17661
311.4967
310.88384
310.64704
310.97404
311.44512
312.40833
312.89072
313.33025
313.75405
314.13916
314.21388
314.17747
314.02454
313.78209
313.59539
313.47534
313.40241
313.33437
313.22379
313.03188
312.76376
312.47586
312.13927
311.82674
311.57205
311.38841
311.28944
311.27108
298.21171
298.58459
299.06385
299.59754
300.09089
300.49037
300.77018
300.90119
300.96226
301.14614
301.31927
302.27718
303.91245
305.68115
309.10291
309.95794
310.26334
310.44057
310.80269
311.17707
311.70651
311.75191
311.78494
311.76828
311.83201
311.50629
311.0229
310.18311
309.73208
309.7199
309.90835
310.28381
311.00912
311.75997
312.54465
313.05523
313.52782
313.82198
314.00598
314.04996
313.99035
313.80715
313.60418
313.45082
313.351
313.28782
313.2416
313.14834
312.98915
312.73985
312.43168
312.11065
311.82846
311.61031
311.45651
311.37638
311.36551
298.28654
298.8248
299.50589
300.27335
300.98162
301.52851
301.85415
301.99907
301.66862
301.49312
301.70884
302.31408
310.3416
310.51419
310.65543
310.68548
310.73086
310.71291
310.73048
310.45475
309.77319
308.91008
308.49343
308.53567
308.88503
309.4325
309.84091
310.54173
311.26624
311.9158
312.61782
313.20113
313.66495
313.86303
313.92066
313.95818
313.86276
313.65413
313.47598
313.34118
313.25984
313.21064
313.16432
313.0816
312.95112
312.69112
312.3802
312.06891
311.8105
311.61202
311.4757
311.40937
311.40459
298.42772
299.14666
300.06676
301.16921
302.19742
302.88648
303.23223
302.9819
302.64697
302.23533
301.94064
308.03073
309.33376
309.712
310.00539
309.96375
309.24666
308.14368
307.66394
307.46826
307.54753
307.82922
308.35935
309.26328
309.89855
310.38556
310.86348
311.44056
312.10626
312.76608
313.39339
313.833
313.99066
314.00202
313.92803
313.72852
313.53258
313.38739
313.29004
313.22633
313.18565
313.13549
313.03081
312.89817
312.61995
312.3069
312.00234
311.75764
311.57138
311.4454
311.38571
311.38307
298.59698
299.47052
300.6224
302.08477
303.44195
304.13104
304.39403
304.44071
303.90023
303.04451
307.49228
308.00299
308.3992
308.67769
308.78811
308.29176
307.43829
306.95408
306.77249
306.83601
307.36097
308.38485
309.41418
310.26886
310.51283
310.71373
311.15119
311.74015
312.39559
313.04707
313.63927
313.9622
313.94091
313.93637
313.79638
313.60961
313.45384
313.35553
313.28099
313.23383
313.20455
313.13651
312.99002
312.79054
312.50601
312.19578
311.90257
311.66571
311.48504
311.36161
311.30071
311.29496
298.75467
299.63507
300.80398
302.5441
304.05693
304.62794
304.83762
304.81692
304.82611
304.67491
307.02224
307.29914
307.47229
307.79748
308.05804
308.31267
308.48023
308.18038
307.26984
306.64489
306.66516
307.24546
308.0185
308.77205
310.00519
310.95372
310.90864
310.90803
311.30046
312.17304
312.8321
313.43434
313.89605
314.01591
313.95883
313.87832
313.69888
313.53757
313.42354
313.36059
313.31093
313.27195
313.24871
313.0645
312.84701
312.50475
312.26181
312.01841
311.76712
311.53195
311.3495
311.21796
311.14573
311.12985
298.81752
299.658
300.83774
302.60967
304.1732
304.68704
304.96328
304.97798
304.99963
305.17501
305.1447
307.20257
306.9509
306.98618
307.27639
307.70548
308.0023
308.26992
308.52009
308.19989
307.67546
307.17944
307.04888
307.45967
308.34054
309.46156
310.96991
311.07414
310.85377
311.16427
311.71413
312.41177
313.03415
313.62121
314.06465
314.10558
313.96887
313.78341
313.63592
313.51388
313.43104
313.40561
313.35452
313.30387
313.22632
312.82828
312.2836
311.87944
311.79268
311.73648
311.56424
311.35269
311.16396
311.01166
310.90733
310.85825
298.78055
299.45214
300.34421
301.85179
303.60528
304.55042
304.98181
305.04055
305.08986
305.4091
305.56321
305.37935
306.86837
306.96442
306.88284
306.90249
307.06949
307.37046
307.69356
307.88249
308.1447
308.30448
308.30895
307.63319
307.54665
307.48377
307.73613
308.83648
310.0148
311.40042
310.77035
311.35782
312.38248
313.21142
313.91267
314.30442
314.24085
313.95469
313.75442
313.6208
313.5392
313.50683
313.50119
313.44533
313.28163
312.95816
312.31153
311.64269
311.15944
311.11657
311.27418
311.27807
311.1221
310.92608
310.73066
310.54064
310.35617
298.64793
299.13181
299.62143
300.39182
301.95884
303.90205
304.83189
305.09374
305.1695
305.53251
305.65338
305.80154
305.73085
306.67455
306.82274
306.79836
306.78998
306.91724
307.33466
307.52259
307.59318
307.62288
307.79858
307.98109
307.85695
307.32201
306.76716
306.97819
308.01894
309.24876
310.22358
311.53855
310.61225
313.92557
314.75362
314.4305
313.84249
313.71458
313.67439
313.63494
313.56443
313.47674
312.96135
312.43051
311.80076
311.19015
310.66762
310.41752
310.59817
310.83824
310.81
310.60083
310.33983
309.95933
309.20066
298.48022
298.87141
299.28913
299.84199
300.75768
302.26092
304.08943
305.13502
305.4871
305.57814
305.73218
305.67027
304.91689
304.28266
305.70304
306.4775
306.81063
306.96779
307.01148
307.02852
307.12855
307.43898
307.51549
307.60255
308.4931
309.55925
310.42759
311.58174
310.49589
313.93415
314.83934
314.22314
314.08459
313.97588
313.95614
313.43713
312.97595
312.25655
311.60409
311.05363
310.56689
310.17405