/*--------------------------------*- C++ -*----------------------------------*\
  =========                 |
  \\      /  F ield         | OpenFOAM: The Open Source CFD Toolbox
   \\    /   O peration     | Website:  https://openfoam.org
    \\  /    A nd           | Version:  8
     \\/     M anipulation  |
\*---------------------------------------------------------------------------*/
FoamFile
{
    version     2.0;
    format      ascii;
    class       volScalarField;
    location    "10800/air";
    object      alphat;
}
// * * * * * * * * * * * * * * * * * * * * * * * * * * * * * * * * * * * * * //

dimensions      [1 -1 -1 0 0 0 0];

internalField   nonuniform List<scalar> 
167754
(
0.1096479
0.10954689
0.10935221
0.10907852
0.10879616
0.10855427
0.10836581
0.10824012
0.10816976
0.10813607
0.10811288
0.10808566
0.1080447
0.10798807
0.10792246
0.10787283
0.10788453
0.10800392
0.10821292
0.10839684
0.10857112
0.10868065
0.10879741
0.10906131
0.10959338
0.11012997
0.1106268
0.1110147
0.11125764
0.11135378
0.11130948
0.11114028
0.11087222
0.1105295
0.11013969
0.10972249
0.1092975
0.10888067
0.10849026
0.10814364
0.10785877
0.10764931
0.10752055
0.10746494
0.10750557
0.10762601
0.10777508
0.10794947
0.10820102
0.1086374
0.10955979
0.11108716
0.11328135
0.11604078
0.11918241
0.12199014
0.12404814
0.12491516
0.12439775
0.14216788
0.14188419
0.14006266
0.13750126
0.13495593
0.1329385
0.13161653
0.13088231
0.13055965
0.1304643
0.13043697
0.13038839
0.13028567
0.13013094
0.12996292
0.12987127
0.12998076
0.13033255
0.13088321
0.13164273
0.13265558
0.13299946
0.13296987
0.13398532
0.13586448
0.1377742
0.13931429
0.14045868
0.1410937
0.14126035
0.14102497
0.14045276
0.13961872
0.13861543
0.13751501
0.13637234
0.13521944
0.13408407
0.13299013
0.13196962
0.13106269
0.13031428
0.12975264
0.12937629
0.1291888
0.12924533
0.12959633
0.13033804
0.13206433
0.13606937
0.14467622
0.1595743
0.18070261
0.20568414
0.23055087
0.25191159
0.26653332
0.27241536
0.26855621
0.22996016
0.22819985
0.21754171
0.20151916
0.18462416
0.17070192
0.16148606
0.15653967
0.1544329
0.15381069
0.1537523
0.15378614
0.15375185
0.15363447
0.15347241
0.15337426
0.15363157
0.15466979
0.15672025
0.15915982
0.16205354
0.1623433
0.16148175
0.16334863
0.16792485
0.1718465
0.1748041
0.17680845
0.17747936
0.17704565
0.17584159
0.17417432
0.17217458
0.17004472
0.16792337
0.16586716
0.16388193
0.16196477
0.16011123
0.15833708
0.15669792
0.15527277
0.1541217
0.15324817
0.15264734
0.1525159
0.15349367
0.15717105
0.168246
0.19475794
0.24288365
0.31015304
0.3886358
0.46663645
0.53502188
0.58791417
0.62193351
0.6351794
0.62644399
0.46425602
0.4600587
0.43135086
0.38418048
0.32724291
0.27155475
0.22734811
0.19959648
0.18615564
0.18132351
0.18018286
0.18027893
0.18072244
0.1812512
0.18179574
0.18256971
0.18460028
0.18918041
0.19574853
0.20426796
0.11811982
0.12315993
0.21754343
0.22266338
0.23151668
0.24057703
0.24457983
0.24571531
0.24320411
0.23723403
0.23020702
0.2235218
0.21694813
0.21093372
0.2057586
0.20136977
0.19761285
0.19432837
0.19135654
0.18860728
0.18610454
0.18394787
0.1822035
0.18084353
0.17988668
0.18009704
0.18467734
0.20352738
0.25544064
0.35211523
0.48313599
0.62666274
0.7658419
0.8900341
0.99064313
1.0646254
1.1107239
1.1283023
1.1165024
0.84291849
0.83661566
0.79295785
0.71726181
0.61705977
0.50420435
0.39547268
0.30867883
0.25339672
0.22712475
0.21825433
0.21715014
0.21937385
0.22337017
0.22879316
0.23626247
0.24784762
0.2664949
0.14635177
0.15754991
0.18679608
0.20226193
0.18766501
0.41866911
0.18983338
0.45831403
0.45525089
0.44985176
0.43456601
0.40622313
0.37680962
0.3499701
0.32402918
0.3009035
0.2815355
0.26579223
0.25323825
0.24333779
0.235404
0.22893345
0.22372118
0.21975036
0.21693941
0.21507324
0.21429246
0.21752843
0.23817867
0.30653891
0.44461697
0.63499103
0.84141723
1.0369288
1.2105115
1.3562082
1.469925
1.5515853
1.6016111
1.6201753
1.6067498
1.2705988
1.2633702
1.2128966
1.12321
0.99902528
0.84838085
0.68528309
0.53214678
0.41022572
0.33408711
0.2982978
0.28911249
0.29458674
0.30926426
0.3304998
0.35767895
0.39026645
0.20917114
0.25181754
0.25762007
0.15361461
0.08714367
0.34610633
0.33020719
0.36477204
0.36640656
0.3571694
0.35112423
0.86607839
0.78721897
0.71892257
0.64963614
0.58213483
0.52065392
0.467063
0.42047794
0.38108991
0.34876175
0.32246246
0.30145985
0.28538533
0.27403819
0.26688063
0.26308273
0.2633153
0.27785585
0.34176019
0.49396282
0.72315856
0.98068987
1.2271978
1.4445763
1.6307218
1.7812043
1.8965102
1.9783034
2.0278456
2.0455803
2.0311024
1.6737079
1.6662394
1.6141905
1.5208556
1.3891643
1.2238959
1.0344986
0.84154329
0.67237279
0.54846309
0.47635034
0.44818842
0.45296244
0.48257599
0.52887446
0.57587758
0.28718688
0.32604138
0.20192557
0.084055896
0.27348413
0.60723583
0.56374361
0.25164257
0.2877481
0.63722112
0.629903
0.5929531
0.53830301
0.49448252
1.1147157
0.99102553
0.87821465
0.78344175
0.69834635
0.62138325
0.55374876
0.49366975
0.44152323
0.39930738
0.36878464
0.34946378
0.33959247
0.34216128
0.3824778
0.51113875
0.74286412
1.0304954
1.3190428
1.5786685
1.8015339
1.9868937
2.1341254
2.2458639
2.3246177
2.3719241
2.3881744
2.3729061
2.0226633
2.0150827
1.9636322
1.8713496
1.7403943
1.5737893
1.3785265
1.1743839
0.99673748
0.37462054
0.77737597
0.73020768
0.72343263
0.7618305
0.82882728
0.39229768
0.39775744
0.17261026
0.82827011
0.86173512
0.34637186
0.32715239
0.36809538
0.78749323
0.74821075
0.68961979
0.62075468
1.2887012
1.1614046
1.0441765
0.93438055
0.83734513
0.74597597
0.65701352
0.5779849
0.51827627
0.48019867
0.46070141
0.46770044
0.54227608
0.72804622
1.0070386
1.3182441
1.6135168
1.871672
2.0908633
2.2699104
2.4107369
2.517043
2.5917216
2.6363521
2.6510866
2.6352649
2.3124688
2.3046512
2.2543695
2.1647405
2.037886
1.8765992
1.6875325
1.4971957
0.58743507
0.51378643
0.49832826
0.48960011
1.0741345
1.103701
1.1862976
0.54696712
0.27127252
1.0521544
1.0465071
0.13537675
0.31177599
0.38445806
0.7949855
0.74051415
0.6805099
0.62249187
1.2407378
1.1325531
1.0277342
0.9034471
0.78939117
0.70311531
0.65072278
0.62559902
0.63765557
0.73974434
0.95671993
1.2513297
1.5636417
1.8527751
2.1023673
2.3124683
2.4832308
2.6167444
2.7171789
2.7877278
2.8299017
2.8434554
2.8274075
2.5479916
2.5396366
2.4903694
2.4036145
2.2818269
2.1289
1.9584064
1.7979278
0.70516999
0.31956644
0.2632829
0.65950024
0.65090028
0.65567003
0.68901256
0.67128347
0.2272304
0.40215258
1.2513045
0.52390311
0.31586425
0.37463829
0.7324494
0.69149441
0.64694572
0.6056492
1.1204499
0.97294777
0.87422967
0.82571845
0.80608232
0.82585948
0.94361528
1.1696134
1.4584565
1.7598817
2.0371032
2.2749471
2.4728313
2.6343565
2.760375
2.8552109
2.9221997
2.9626665
2.9757276
2.959934
2.7370931
2.7277091
2.678746
2.5939536
2.4767655
2.3381069
2.209673
0.94770433
0.77798861
0.17204167
0.34842523
0.78305063
0.80396965
0.73376458
1.3060731
1.3994488
0.21047665
0.29141324
0.34812546
0.67502693
0.62300697
0.56756697
0.97032574
0.96308226
0.52323894
1.0008663
1.1267793
1.3535781
1.6287931
1.9122882
2.1739664
2.3970407
2.5838352
2.73363
2.8497776
2.9391484
3.0038365
3.0441885
3.0580062
3.0431953
2.8880023
2.8768518
2.8268939
2.7423984
2.6279231
2.5030774
1.0998201
0.97492026
0.35036375
0.19959091
0.41179478
0.39603293
1.5348982
0.69780953
0.27023836
0.35193579
0.55495899
0.57290437
0.59991118
0.5774945
0.6155965
0.70308715
1.7692167
2.0314183
2.2782729
2.4827025
2.654752
2.7925666
2.8955403
2.9753298
3.039484
3.0827939
3.0996256
3.0869079
3.0085093
2.9945349
2.9414948
2.8541379
2.7453076
2.6399979
1.1087488
0.92647409
0.3500579
0.48791039
1.6561522
0.45950926
0.4064126
0.59780335
0.23035436
0.25276935
0.28817483
0.67969398
0.86284567
0.99421222
1.092903
2.5414835
2.6997435
2.8255713
2.907679
2.973662
3.0347418
3.0858209
3.1093537
3.1003025
3.1061288
3.0880758
3.0299169
2.9392411
2.8442938
1.283268
1.1016163
0.37162752
0.30973691
1.6243588
0.79891638
0.87248796
0.42472611
0.10280069
0.3104704
0.87772741
1.0147404
1.1761714
1.2640859
1.3146217
2.8819115
2.9426252
3.001853
3.0618462
3.0964681
3.0926453
3.1881606
3.1645252
3.097333
3.0016424
2.9083009
1.2332524
0.52890811
1.3146017
1.7564134
0.58559956
0.12445071
0.93167178
0.48416652
0.27152961
0.39944158
1.0640521
1.1785641
1.3013899
1.3491422
2.9649339
3.0296987
3.072858
3.0738894
3.2625998
3.2333985
3.1574607
3.0575069
1.3893752
1.173473
0.35957402
0.5527409
1.8260368
0.83918179
0.36661318
0.85916413
0.18950788
0.26348463
0.46016345
1.0711453
1.3708545
3.0209082
3.0545474
3.0550306
3.3370321
3.3018831
3.2208459
3.1111637
1.2965292
0.54179203
1.8090145
1.9206061
0.68014746
0.7482971
0.47710919
0.35819045
1.304922
3.0528617
3.0527826
3.0425642
3.4196927
3.3852013
3.3232698
1.5112789
1.255575
0.34343471
0.63704801
1.9136654
1.7998679
0.13451025
0.64814781
0.32645437
0.4476075
1.4102844
3.0907225
3.0574089
3.0344678
3.5119643
3.4865379
3.457001
1.5208988
1.3994336
0.26530795
1.8172392
1.9148342
0.70704896
0.24152559
0.55421964
0.12425014
0.49382761
1.44678
3.1078873
3.0595551
3.0261443
3.6073308
3.5912582
3.5780846
1.5957484
1.5358313
0.41355403
1.6098429
1.8845009
1.8148936
0.25364081
0.51913111
0.34567659
1.1928994
3.1168971
3.1008482
3.057038
3.0169362
3.6999011
3.6892023
3.6700578
3.6489013
1.6184657
0.62112334
0.43405849
1.8143811
1.8729748
0.7120384
0.096760707
0.52870975
0.32023726
1.2430737
3.0939016
3.083787
3.0475133
3.007288
3.7844235
3.7710061
3.7444789
3.7134404
1.661616
1.3468375
1.6563431
1.9003708
1.897584
0.41686136
0.24828024
0.57071928
0.32124813
1.3012756
3.0798481
3.0690981
3.037369
2.9993298
3.8580041
3.8387794
3.8070805
3.7676537
1.6860115
1.5039584
0.20550082
0.54069966
1.8375859
1.9456719
1.9959869
1.6768994
1.5926111
1.5774335
1.535297
1.4471404
1.3203711
1.2147878
1.1155644
1.0084734
0.86506012
0.66900545
0.46705806
0.39422344
0.40535823
0.42302557
0.45846267
0.50665661
0.57205051
0.62674079
0.6050568
0.52743838
0.57258819
0.64701846
0.31089026
1.3429645
3.0760548
3.0604549
3.0307687
2.9948839
3.9179488
3.8940867
3.8603998
3.809848
3.7270883
1.6224563
0.49959733
1.691641
1.90818
1.9755125
0.97314075
1.886108
0.78917067
0.77881213
0.74420868
0.61319671
0.49351164
0.41326116
0.35045535
0.29312228
0.26294057
0.24363456
0.19185816
0.17767407
0.19570605
0.24159009
0.27982675
0.28697435
0.30408479
0.3922196
0.46768564
0.43591999
0.64405739
0.70233538
0.31378781
0.2891783
1.3914963
3.0823868
3.0583123
3.0292264
2.994895
3.9614123
3.9337188
3.8967461
3.8466958
3.7832481
1.6883056
0.67583262
0.60351789
1.875036
1.9736174
2.0189762
0.98279728
0.83008592
1.7274037
1.5208593
0.58717957
0.196526
0.33403648
0.15290834
0.17989609
0.18676211
0.27083274
0.87758595
0.85236094
0.70021711
0.7141031
0.30904231
0.38943176
1.4262677
3.0922636
3.0610997
3.0327814
2.9996103
3.9858661
3.9550851
3.9164185
3.8713862
3.8260014
1.7323319
1.4628497
0.27644359
1.7732322
2.0603643
2.131112
2.068864
0.56257161
0.44153018
0.61144329
0.30604137
0.21779384
0.15518388
0.25523315
0.1643225
0.093015549
0.062477092
0.085109515
0.066483138
0.092583982
0.10705687
0.12741183
0.41000345
0.51534139
0.10278525
0.20662899
0.70136937
0.75970467
0.80116432
1.5334907
0.70559667
0.30011313
0.51187564
1.4584821
3.1009397
3.068484
3.0412346
3.0088053
3.9879254
3.9558046
3.9188796
3.8832057
3.8574961
1.7531669
1.617203
0.35323112
1.5634785
2.0160356
1.10954
1.186396
1.1165623
0.95177882
1.4842861
0.37156759
0.35562618
0.29785268
0.18815681
0.094764138
0.096887998
0.12091214
0.15654641
0.19735407
0.22869067
0.27274402
0.59755358
0.13488013
0.21976482
0.73106392
1.570861
1.5530894
0.70154736
0.67448115
0.24364177
0.56902284
1.4777075
3.1145234
3.0819244
3.0537493
3.0218059
3.9647013
3.9336869
3.9021173
3.8788174
3.8692563
3.8753427
1.7692551
0.72886255
0.4295846
1.8356953
2.3435594
1.2895804
1.3357405
1.0627228
0.82030347
0.68162262
0.50094591
0.47029447
0.47092304
0.94894514
0.90779659
0.9064733
0.92150703
0.94111312
0.92814942
0.87882954
0.81203109
0.74873509
0.71330572
0.66194766
0.23411392
0.77716648
0.7510534
0.73024815
0.65824305
0.63919695
0.15875173
1.2726364
3.1199577
3.126891
3.0998108
3.0691075
3.0375425
3.9156708
3.8865096
3.8604778
3.8453507
3.8497608
3.8702675
3.8945471
1.774815
1.4403274
0.47269677
1.5122341
1.9521268
1.1053982
1.2688081
1.2368139
1.436362
1.3321716
2.82342
2.7180061
2.6433449
2.5612038
2.4669792
2.3581268
2.2268972
2.0823996
1.9443394
0.78821841
0.68579319
0.19413836
0.85017675
1.0236797
0.77514992
0.62525168
0.59575518
0.14894855
1.3455749
3.1320848
3.1350091
3.1139497
3.0844918
3.0541587
3.8411577
3.8135611
3.7919956
3.7814671
3.7890022
3.8105712
3.8170026
3.7495321
1.7033472
1.4696254
3.9715683
4.4713267
2.2314754
2.3460849
1.0787364
0.43962031
1.5007923
3.2033102
2.9562841
2.7969059
2.6808742
2.5770849
2.4711101
2.356967
2.2319257
2.0979361
1.9630141
0.80087176
0.68156777
0.17926943
1.024526
0.59792445
1.0285721
0.60556016
0.51811745
0.45283346
0.21736349
0.11930218
1.396884
3.1397677
3.1396767
3.1238342
3.0981289
3.0698408
3.7425982
3.7164797
3.6990265
3.6928549
3.7018964
3.7226855
3.7363897
3.7065922
3.6492255
3.75386
1.9193379
2.0641853
2.0723134
2.1544953
1.0019115
1.5592298
3.4663113
3.2081167
2.9832774
2.8131841
2.6757288
2.5516643
2.4300615
2.3063548
2.1819829
2.0571743
1.9418541
0.82188565
0.70699927
0.19288576
0.50718211
0.64583734
0.51051691
0.29262122
0.21408749
0.26572916
0.71136063
0.82149764
0.85132426
0.35247805
0.15163789
0.27452538
1.4425004
3.1403638
3.1389142
3.1290384
3.1087572
3.0834155
3.6224993
3.5982425
3.5854187
3.5849249
3.5983952
3.6224084
3.6453167
3.6484759
3.6563437
1.8194386
1.8392358
1.0253446
2.0897932
2.1022075
0.97634925
1.5642846
3.4102268
3.1637317
2.954199
2.7816428
2.6343345
2.4998594
2.3701147
2.2417676
2.1163112
1.9921813
1.8799162
0.8301919
0.79011559
0.20636689
0.57609393
1.3165891
0.90017394
0.27229899
0.12525479
0.37743486
0.45279048
1.0647534
1.1195065
1.1341001
0.39016335
0.17630726
0.29578777
1.4560444
3.121398
3.1285841
3.1285896
3.1155798
3.0942653
3.4841088
3.4623505
3.4549585
3.4615271
3.482042
3.5134425
3.5475467
3.5772932
3.6296166
1.7312096
1.8711865
1.1091049
1.0914285
2.2727494
0.98465966
1.5287678
3.3244311
3.0879323
2.8881564
2.7168173
2.5671059
2.4293866
2.2969452
2.1684718
2.0432876
1.9183943
1.799524
0.81065776
0.67969031
0.22769201
0.17338526
0.41196055
0.47103096
0.71813777
0.10572238
0.13105745
0.46135188
0.53192677
1.4045689
1.4309712
1.2116742
0.42526896
0.14748364
0.43906758
1.4346501
3.0788504
3.1099494
3.1231203
3.1189112
3.1024736
3.3312481
3.3126796
3.3114457
3.3261237
3.355432
3.3967548
3.444174
3.4982974
3.5879398
1.7301375
1.8724759
1.0627502
2.2429929
1.1134331
0.97465365
1.4609251
3.2236734
2.9918194
2.7916885
2.6189391
2.4662347
2.3248982
2.1891335
2.0590742
1.9332179
1.8111685
1.6950671
0.79835947
0.65096821
0.25181005
0.16863649
0.24845611
0.68779789
0.24079153
0.14827716
0.4567784
0.54527635
1.2759718
0.98939422
0.92223752
2.8088031
3.0187338
3.0906593
3.11618
3.1205167
3.1089494
3.1681486
3.1533899
3.1587982
3.1821347
3.2211416
3.2733756
3.33486
3.4083234
3.5113863
3.7464929
1.8563945
0.97269271
1.0258989
2.1429621
0.93772937
1.3493118
1.4499515
1.3617909
1.2615697
1.1750272
1.0999482
1.0323728
0.96942988
0.90987923
0.85455477
0.80374409
0.75781231
0.70557338
0.62029694
0.24743488
0.13914178
0.22691459
0.53571792
0.16230852
0.50387722
0.94815348
2.7562836
2.9883622
3.0797443
3.1131761
3.1229296
3.1149215
2.999253
2.9887585
3.0009461
3.0328972
3.0815461
3.144227
3.2178775
3.3038708
3.4190122
3.6182276
1.7876576
1.9679008
1.0240572
2.0703631
2.0366343
1.815412
1.6868092
1.5973893
1.5247135
1.4878983
0.76896678
0.79741336
0.729308
0.67066837
0.61758475
0.56682188
0.51481302
0.46576896
0.42666838
0.39924875
0.38256588
0.38317236
0.52457614
0.23612094
0.2723395
0.62730761
0.219389
0.5695336
1.1244792
2.8517561
3.0179568
3.0911435
3.1190189
3.1276661
3.1208897
2.8289883
2.8230015
2.8417404
2.881695
2.9391096
3.0108644
3.0941121
3.1879043
3.3068426
3.4860833
1.7125767
1.8520352
0.99299803
0.97406023
1.0224325
1.9536991
1.8056663
1.7032259
1.6075752
1.5090365
0.68871847
0.71075746
0.52878785
0.44677642
0.41075488
0.36974728
0.30696984
0.24203345
0.20619671
0.2018721
0.20074714
0.19586407
0.37288149
0.24996232
0.31873731
0.29482814
1.270715
2.8397016
2.9767818
3.0754189
3.1143848
3.1292378
3.1324931
3.1252826
2.6615945
2.6601271
2.6848437
2.7317385
2.7965657
2.8756561
2.9659688
3.0648386
3.183793
3.3486999
1.6398844
1.7437164
0.91498756
0.96200968
0.9600772
2.0028377
1.7942309
1.6879091
1.5793485
1.4705483
0.68441318
0.374441
0.27286517
0.19503709
0.22321048
0.2686682
0.27308949
0.17414978
0.11464
0.088706946
0.084835831
0.14188714
0.41796003
0.49606234
0.55764587
0.16471204
0.52825482
1.3720112
2.9758539
3.0602785
3.1128923
3.129688
3.1343979
3.1327496
3.1250817
2.5004642
2.5032835
2.5332018
2.5858051
2.6565341
2.7409888
2.8358195
2.9376225
3.0521733
3.1928223
3.3930191
1.6717412
1.7816586
1.9049159
0.88674282
0.85660254
1.7038666
1.6170652
0.76071821
0.74120501
0.65013524
0.38579773
0.26383734
0.21266469
0.48232854
0.35761862
0.34278498
0.23943086
0.14748657
0.15763902
0.15353433
0.29938579
0.23373857
0.50766301
0.18051728
0.23556514
1.2266372
2.9160412
3.0366117
3.0909776
3.1196304
3.1279221
3.1287243
3.1250883
3.1179011
2.348771
2.3554444
2.3895858
2.4465108
2.5212019
2.6089497
2.7055264
2.8066067
2.9113702
3.0269815
3.1667534
1.5511412
1.6523566
1.6479635
1.466273
1.3813258
1.3191933
1.2501127
1.2125507
1.1552962
1.0594419
0.95097618
0.83638339
0.73350967
0.68169528
0.60376089
0.55068739
0.51132404
0.48536301
0.49872349
0.48852903
0.41232581
0.40151331
0.43376047
0.088465558
1.0055092
2.7127606
2.9482856
3.042747
3.0824869
3.1025624
3.109959
3.1113341
3.1084868
3.1028057
2.2087284
2.2187031
2.256058
2.3158715
2.3928652
2.4819288
2.5779337
2.6751923
2.7673634
2.852744
2.9202627
1.3580844
0.58914831
0.42921612
0.28803707
0.25284006
0.23696165
0.22515434
0.21637313
0.21372117
0.21271416
0.21364846
0.20979899
0.1934105
0.16791862
0.1379772
0.12895798
0.13643805
0.14788456
0.15524467
0.19625574
0.39183664
0.3757232
0.36269247
0.2560864
0.30910289
1.1396168
2.7712104
2.9406699
3.0148889
3.0503161
3.0692753
3.0790134
3.083373
3.0832021
3.0798237
2.0815801
2.0942567
2.1338501
2.1952668
2.2730895
2.361924
2.456091
2.5491112
2.6323538
2.6978007
2.7383393
1.2551519
0.55082634
0.16558489
0.38583405
0.38033699
0.37736808
0.41371216
0.35599829
0.11191905
0.94903888
2.5171604
2.7791851
2.9062942
2.9693225
3.0038515
3.0245346
3.0379833
3.0464246
3.0499323
3.0493783
1.9677113
1.9825447
2.0235431
2.0854679
2.1628912
2.2503603
2.3420432
2.4313377
2.5094866
2.5672988
2.5957122
1.2049837
0.94400817
0.10136866
0.44816251
0.48359359
0.13652197
0.22374465
0.37062978
0.30788707
0.15142057
0.3335875
1.0740335
2.5705899
2.7599075
2.8574144
2.9140024
2.9484256
2.9718462
2.9893523
3.0020752
3.0094947
3.0119199
1.8667577
1.8833379
1.9250968
1.9866525
2.0626848
2.1478459
2.2364098
2.3219979
2.3961739
2.4509941
2.4725124
1.1568547
0.9699973
0.20449903
0.43938717
0.53396172
0.20909857
0.11295702
0.17520156
0.21448496
0.21250479
0.1144981
0.90846546
2.321508
2.5786966
2.7206032
2.8011546
2.8528171
2.8875755
2.9138715
2.935148
2.951784
2.9627322
2.9677621
1.7777915
1.7959137
1.8379817
1.8985125
1.9723926
2.0544861
2.1393235
2.2209478
2.2916326
2.344219
2.3582376
2.2537731
0.99534524
0.35297117
0.14872162
0.54505831
0.52707826
0.13837916
0.10794421
0.19102976
0.4765172
0.53070254
0.21475143
0.35221131
1.014976
2.3750977
2.5630555
2.671105
2.7405377
2.7882605
2.8235822
2.8524287
2.8768975
2.8967743
2.9105362
2.9176263
1.6997764
1.7193336
1.7613836
1.8204353
1.8916393
1.9701357
2.0507928
2.1281254
2.1952218
2.2449341
2.2613501
2.1936364
1.001346
0.44186979
0.076670905
0.48429944
0.57557427
0.22052596
0.2026859
0.66702246
0.65163788
0.3268954
0.1132516
0.16177846
0.87814193
2.1587263
2.3909424
2.5300706
2.6167111
2.6772358
2.721937
2.7578247
2.7887141
2.8156907
2.8380196
2.8538235
2.8624755
1.6320017
1.6526923
1.694407
1.7516619
1.8198648
1.894458
1.9706964
2.0435695
2.1070481
2.1539155
2.1731645
2.1296304
0.99244035
0.78011424
0.39826108
0.56973824
0.50033335
0.052127838
0.14821738
0.3552841
0.66974544
0.65680897
0.35154373
0.77658414
1.9922795
2.2267706
2.3853336
2.4874354
2.558728
2.6122195
2.6547649
2.6911209
2.72353
2.7523151
2.7763083
2.7934534
2.8032367
1.5737906
1.5951619
1.6361956
1.6914074
1.7564268
1.8269973
1.8987948
1.9673356
2.0276048
2.0729784
2.0967275
2.074024
0.9837874
0.8405281
0.30737449
0.14249636
0.51138643
0.54837466
0.16968933
0.26095758
0.72922668
0.94777566
1.9393922
2.0986202
2.246779
2.3572217
2.4365829
2.4973906
2.5460701
2.5872754
2.6240001
2.6574427
2.6873692
2.7123106
2.7302211
2.7407629
1.524255
1.5459401
1.5859678
1.6389265
1.7006589
1.7671968
1.8346506
1.8991396
1.9567657
2.0025844
2.0330226
2.0323075
1.9540651
0.92355496
0.75982248
0.20228081
0.42144231
0.52151691
0.37423039
0.92146465
1.9599493
2.1070675
2.2216206
2.3106476
2.3787442
2.433522
2.479442
2.5199198
2.556888
2.5908988
2.6213514
2.6466304
2.6648437
2.6758186
1.4823592
1.5042408
1.5430041
1.5935354
1.6519085
1.7144282
1.7776113
1.8381462
1.8930539
1.9389872
1.9743221
1.9917218
1.9663326
1.8993276
0.90915278
0.78568005
0.35034347
0.34736109
0.47154483
0.39853818
0.15060907
0.29247065
0.87354249
1.9347907
2.0726924
2.1756653
2.2553806
2.3176063
2.3689155
2.4132293
2.4532179
2.4901908
2.5243032
2.5547277
2.5798381
2.5979882
2.6091096
1.4474011
1.469381
1.5066711
1.5546239
1.6095755
1.6680832
1.7270075
1.7834838
1.8351203
1.8795908
1.9157786
1.9405462
1.9394286
1.9118698
1.8440407
1.763922
0.80727286
0.64109239
0.14101999
0.12619798
0.42219058
0.39222614
0.17894177
0.69524893
1.7278444
1.911699
2.0344857
2.1271187
2.1990053
2.2566333
2.3052898
2.3482889
2.3876724
2.4242976
2.4580386
2.4879507
2.5124851
2.5302675
2.5412884
1.4189923
1.4408272
1.4764504
1.5216903
1.5731629
1.627668
1.6823541
1.734695
1.7826479
1.8244495
1.8590205
1.8845849
1.8929232
1.8811096
1.843893
1.7901988
1.7167291
0.79848865
0.67781544
0.29021767
0.39215829
0.40117812
0.3183254
0.12473033
0.26364225
0.76918526
1.7478782
1.8939187
1.9981334
2.0796098
2.144044
2.1974083
2.2435513
2.2851396
2.3236348
2.3595215
2.392462
2.421463
2.4451088
2.4622749
2.4729771
1.396785
1.418191
1.4519568
1.4943567
1.5422938
1.5928165
1.6433287
1.6915865
1.7357936
1.7745207
1.8067735
1.8313101
1.8431184
1.8393539
1.8180563
1.7844156
1.7391015
1.6714148
1.5762875
0.69583358
0.53021442
0.10688968
0.36995432
1.0633387
0.39407832
0.17263568
0.11833395
0.64204044
1.5695606
1.7516237
1.8719861
1.9615181
2.0328184
2.0908271
2.1402737
2.1839788
2.2240024
2.2613179
2.2961152
2.327908
2.3557006
2.3782256
2.394576
2.4047808
1.3804962
1.4012257
1.4329496
1.472377
1.5167146
1.5632691
1.6096919
1.6539917
1.6945818
1.7302652
1.7601806
1.7834336
1.7969346
1.7983618
1.787182
1.7675429
1.7411232
1.7010904
1.6424192
1.5653694
0.69964176
0.58554693
0.26857511
0.46143163
1.1741308
0.44983558
0.33953495
0.092236045
0.52908702
1.4034628
1.6075114
1.7487518
1.8474588
1.9242829
1.9868623
2.0394303
2.0852982
2.1266366
2.1649569
2.2008558
2.2342973
2.2646963
2.29108
2.3123305
2.327719
2.3372879
1.3699753
1.3898377
1.419348
1.455659
1.4963051
1.5388736
1.5812685
1.6217317
1.65887
1.6916646
1.7194054
1.7414603
1.7559823
1.7613198
1.7574062
1.7468351
1.7315613
1.7069649
1.6688934
1.6153829
1.554097
1.4914136
0.67341625
1.3392939
1.3183367
1.3556382
0.55115835
0.55295822
0.21182513
0.18033783
0.63778144
1.470007
1.6254126
1.7372409
1.8202772
1.8867188
1.9422128
1.9899252
2.0325084
2.0715256
2.1080456
2.142364
2.1742776
2.2031368
2.2280119
2.2479073
2.2622364
2.2710702
1.3652519
1.3841116
1.4112476
1.4442786
1.4810998
1.5196092
1.557975
1.5946681
1.6284757
1.6585309
1.684275
1.7052846
1.7204958
1.7288234
1.7303135
1.7264104
1.7183437
1.7036294
1.6783561
1.6424943
1.6006793
1.5558408
1.5240755
1.497388
1.4977042
1.5551253
1.7159825
1.8728915
0.76729477
0.65606416
0.17007582
0.53590025
1.3293435
1.5043041
1.6286455
1.7202019
1.7910436
1.8490808
1.8986817
1.9422664
1.981827
2.0186094
2.0532887
2.0859475
2.1162578
2.1435317
2.1668768
2.1854015
2.1986296
2.2066777
1.3665695
1.3843323
1.4089401
1.4385016
1.4713115
1.5056131
1.5398607
1.5727555
1.6032567
1.6306359
1.6544688
1.6744924
1.6901203
1.7006635
1.70615
1.7072748
1.7044282
1.6960291
1.679551
1.6591839
1.6358568
1.6158676
1.6112658
1.6267005
1.6695861
1.7530666
1.8854966
2.0084539
2.0964107
0.89245248
0.75587004
0.55341444
0.090772507
0.22374566
0.62768042
1.3902716
1.5243411
1.623485
1.6998209
1.760694
1.8117957
1.8564114
1.8963692
1.9331979
1.967854
2.0007196
2.0317239
2.0604429
2.0861703
2.1080394
2.1252405
2.1373755
2.1446267
1.374372
1.3909819
1.4129187
1.4387953
1.467346
1.4972029
1.5271323
1.5560752
1.5831632
1.6077873
1.6296286
1.6485318
1.6641839
1.6761396
1.6843049
1.6887931
1.6897084
1.6864846
1.6797259
1.6711993
1.6652376
1.668974
1.6923812
1.7404623
1.8156679
1.9180523
2.037731
2.1338001
2.1737158
2.1604163
2.0610375
0.8137513
0.64549708
0.20146049
0.54846768
1.2710759
1.4248425
1.5315015
1.6128691
1.6771128
1.7298457
1.7751641
1.8154612
1.8522105
1.8865803
1.9192461
1.9503858
1.9798114
2.0070312
2.031318
2.0518266
2.0677995
2.0788967
2.0853773
1.38928
1.404717
1.4238554
1.4458123
1.4698022
1.4948858
1.5201768
1.5448746
1.5682856
1.5899107
1.6095
1.6269495
1.6420659
1.6545087
1.6640712
1.6707155
1.6756182
1.6780198
1.6789445
1.6816531
1.6919368
1.7172062
1.7655793
1.8402157
1.9393314
2.0548742
2.1686425
2.2451662
2.2577516
2.206579
2.0916212
1.9304878
1.7993722
0.73431265
0.58817829
0.20137727
0.27674996
0.62879609
1.3333008
1.4477919
1.5316064
1.598649
1.6530068
1.6989708
1.7393187
1.7758751
1.8098098
1.8419766
1.8728204
1.9023727
1.9303553
1.9562246
1.9792329
1.9985417
2.0134239
2.023577
2.0293427
1.4119967
1.4262845
1.442526
1.4603322
1.4794226
1.4993271
1.5195475
1.5395696
1.5588886
1.5771102
1.5940253
1.609518
1.6234247
1.6354889
1.6459501
1.6551444
1.6628942
1.66982
1.6781152
1.6920515
1.7178421
1.762711
1.8329295
1.9299196
2.0482398
2.1743929
2.2841161
2.3425854
2.3339104
2.2525806
2.1215989
1.9662973
1.8084896
1.6298643
1.4210588
0.67857572
0.60196941
0.29438926
0.58621587
1.2550923
1.3768618
1.4610765
1.527416
1.5821541
1.6281946
1.6683443
1.7044133
1.7377448
1.7692183
1.799428
1.8286404
1.8567776
1.8834941
1.9082035
1.9301348
1.9484387
1.962396
1.9717271
1.9768519
1.4431503
1.4563677
1.4696681
1.4831264
1.4969819
1.5112641
1.525902
1.5407087
1.5553946
1.5696792
1.5833804
1.5963314
1.6083929
1.6200306
1.6311647
1.6415256
1.6516177
1.6630691
1.6788078
1.7037981
1.7443236
1.8072606
1.8973907
2.0142305
2.1491044
2.2837985
2.3884325
2.4308649
2.4002645
2.2901484
2.1411296
1.9871382
1.8291378
1.6632508
1.4623348
1.2421293
0.67400621
0.63290805
1.2408658
1.334221
1.4076717
1.4682022
1.5195553
1.5640216
1.6031249
1.6382911
1.6706865
1.7012374
1.7305599
1.759045
1.7868254
1.8137451
1.8394026
1.8631703
1.8842467
1.9017566
1.9149708
1.9236157
1.9281883
1.4830408
1.4953145
1.5057186
1.5147204
1.5230672
1.5313089
1.5398357
1.5488332
1.5582784
1.5680312
1.5779355
1.5878071
1.5979594
1.6089147
1.619869
1.631054
1.6435875
1.6598228
1.6832096
1.7189163
1.7732582
1.8527791
1.9612522
2.0962833
2.2458689
2.3863535
2.4845124
2.5161668
2.4659683
2.3363944
2.1778381
2.0256025
1.8735486
1.7104776
1.5427178
1.3760329
1.2473548
1.2579638
1.3189078
1.3749319
1.4237535
1.4681206
1.5082718
1.5448041
1.5782261
1.6091929
1.6384318
1.6665603
1.6939908
1.7209645
1.7475123
1.7734158
1.7982274
1.8212788
1.8417306
1.8586645
1.8713241
1.8794189
1.8835258
1.5313205
1.5427972
1.5504686
1.5550676
1.5577768
1.5596699
1.5616315
1.5642676
1.5678851
1.5725374
1.5781452
1.5845672
1.5929132
1.6027366
1.6135555
1.6258865
1.6414746
1.6629676
1.6941074
1.7399407
1.80672
1.9008512
2.025585
2.1766535
2.3380865
2.4814501
2.5754618
2.6031156
2.5401728
2.4014457
2.2400685
2.0784702
1.911666
1.7448893
1.5846709
1.4277685
1.3272372
1.3240296
1.3575808
1.3937522
1.4289764
1.4629135
1.4950661
1.5254472
1.5541683
1.5815441
1.6080198
1.6339986
1.6597491
1.6853986
1.7108994
1.7359851
1.7601649
1.7827269
1.8027814
1.8193498
1.8316338
1.8393055
1.8430253
1.5866171
1.5973584
1.6025323
1.603066
1.600267
1.5957261
1.5908567
1.5867301
1.584064
1.5831899
1.5842181
1.5871047
1.5935094
1.6026263
1.6141882
1.6288236
1.6485446
1.6758902
1.7145032
1.768909
1.8455022
1.9507045
2.087974
2.2514255
2.4210355
2.5662417
2.6641042
2.6948275
2.6280649
2.4914602
2.330696
2.1566985
1.9703578
1.7918496
1.6325459
1.485885
1.3914015
1.3689478
1.3824252
1.4053211
1.4306029
1.4564721
1.4821017
1.5072362
1.5318013
1.5559275
1.5798637
1.6038588
1.6280701
1.6525362
1.6771463
1.70159
1.7253341
1.7476145
1.7674784
1.7838782
1.7959452
1.8033001
1.8066935
1.646344
1.6562388
1.6588952
1.6558526
1.648347
1.637672
1.6260182
1.6150051
1.6058348
1.5992523
1.5956847
1.595352
1.5998922
1.6093238
1.6234633
1.6428785
1.6687634
1.7027934
1.7469525
1.8057056
1.8869543
1.9975318
2.1414928
2.3123146
2.4877971
2.6423264
2.7519614
2.7870156
2.7310711
2.6083492
2.4543189
2.2660711
2.0542301
1.8600428
1.6943792
1.5506229
1.4510293
1.4099259
1.4059087
1.4165658
1.4326976
1.4512735
1.4709499
1.4912287
1.5118872
1.5329148
1.5544142
1.5765148
1.5992769
1.6226674
1.6465189
1.6704752
1.6939578
1.7161397
1.7359932
1.7523977
1.7643809
1.7714954
1.7746095
1.7063215
1.7152007
1.7151955
1.7082638
1.6962311
1.680675
1.6634121
1.6459559
1.6303876
1.6181466
1.6101646
1.6071409
1.6098946
1.6213865
1.6409527
1.6693371
1.7061638
1.7488419
1.7947963
1.8494141
1.9269233
2.0346428
2.1795763
2.357999
2.5450482
2.7129659
2.8345969
2.8789989
2.8463081
2.7482493
2.6106338
2.3969299
2.1476792
1.9352993
1.7626708
1.6168548
1.5083787
1.4507737
1.4308026
1.4295938
1.4369041
1.4485365
1.4625291
1.478115
1.4949359
1.5128758
1.5319327
1.5521365
1.5734742
1.5958419
1.6190169
1.6425946
1.6659435
1.6881584
1.7081477
1.7246983
1.7366805
1.7436209
1.7464834
1.7619825
1.7697616
1.7672934
1.7566672
1.7400018
1.7191255
1.6960968
1.6729379
1.6517318
1.6342799
1.6221493
1.6167943
1.6196698
1.6326296
1.6605296
1.7039237
1.7593381
1.8136769
1.8563886
1.8995543
1.9704582
2.0671033
2.2196293
2.4115402
2.6092108
2.7936969
2.923549
2.9674099