/*--------------------------------*- C++ -*----------------------------------*\
  =========                 |
  \\      /  F ield         | OpenFOAM: The Open Source CFD Toolbox
   \\    /   O peration     | Website:  https://openfoam.org
    \\  /    A nd           | Version:  8
     \\/     M anipulation  |
\*---------------------------------------------------------------------------*/
FoamFile
{
    version     2.0;
    format      ascii;
    class       volScalarField;
    location    "10800/air";
    object      epsilon;
}
// * * * * * * * * * * * * * * * * * * * * * * * * * * * * * * * * * * * * * //

dimensions      [0 2 -3 0 0 0 0];

internalField   nonuniform List<scalar> 
167754
(
0.00030673095
0.00030659544
0.00030571268
0.0003044501
0.00030313318
0.00030199859
0.00030116596
0.0003006165
0.0003003229
0.00030024307
0.00030031193
0.00030049242
0.00030074632
0.00030103413
0.00030131032
0.00030152187
0.00030163571
0.0003016588
0.00030165945
0.00030161276
0.00030151008
0.00030210241
0.00030305548
0.00030356157
0.00030384545
0.00030414869
0.00030441307
0.00030463134
0.00030479047
0.00030487164
0.00030488673
0.00030485074
0.00030477269
0.00030464651
0.00030447554
0.00030426151
0.00030400025
0.00030368911
0.00030332363
0.00030290748
0.0003024439
0.00030194345
0.0003014208
0.00030089595
0.00030057327
0.00030047484
0.00030048942
0.00030075512
0.00030159371
0.00030357587
0.00030820852
0.00031617605
0.00032801303
0.0003433859
0.00036042427
0.00037655924
0.00038838036
0.0003931063
0.00038953334
0.00050246385
0.00050041535
0.00048823793
0.00047091049
0.0004538616
0.00044055521
0.0004318282
0.00042687814
0.00042453131
0.00042387937
0.0004243592
0.00042560454
0.00042734777
0.00042934788
0.00043133393
0.00043293435
0.00043374817
0.0004336556
0.0004331829
0.00043328775
0.00043385868
0.00043669503
0.00044072352
0.00044280577
0.0004426396
0.00044269195
0.0004422555
0.00044181627
0.0004414145
0.00044094297
0.00044070534
0.0004407633
0.00044096876
0.00044126989
0.00044160828
0.00044189467
0.00044202952
0.00044190001
0.00044138678
0.00044038428
0.00043882684
0.00043671064
0.00043411021
0.00043118676
0.0004283341
0.00042629682
0.00042593618
0.00042864655
0.00043880836
0.00046561894
0.00052584213
0.00063665879
0.00080641632
0.0010258038
0.0012668911
0.0014873234
0.0016448512
0.00170695
0.001658448
0.0013007967
0.0012849255
0.0011747984
0.0010146642
0.0008548927
0.00073054339
0.0006516074
0.0006097616
0.00059116353
0.0005850867
0.00058556468
0.00058968837
0.00059603255
0.00060362088
0.00061141385
0.00061804945
0.00062227914
0.00062395621
0.00062385578
0.00062274844
0.00062130782
0.0006374613
0.00065885564
0.00066354685
0.00065995999
0.00065543672
0.00064962118
0.00064376159
0.00063825324
0.00063211303
0.00062726195
0.00062504208
0.00062434238
0.00062502699
0.00062678639
0.00062918411
0.00063174948
0.0006339714
0.00063530126
0.00063519253
0.00063316201
0.00062890683
0.00062244513
0.00061421584
0.00060526819
0.00059828975
0.00059964268
0.00062478346
0.00071674591
0.00096043164
0.0014666531
0.0023065539
0.0034736203
0.0048293836
0.0061740029
0.0073144854
0.0080868422
0.0083808018
0.0081470847
0.0050222327
0.0049426954
0.0043958581
0.0035529049
0.0026388033
0.001857054
0.0013164504
0.0010117952
0.00087085421
0.00081866601
0.00080796434
0.00081657029
0.00083567296
0.00086152993
0.00089155318
0.00092189897
0.0009466293
0.00096103709
0.000967996
0.0010090219
0.0019134492
0.0020701499
0.0012539089
0.001301879
0.0012664738
0.0012662206
0.0012267944
0.0011856538
0.0011389697
0.0010771546
0.0010226791
0.00098481995
0.00095457743
0.00093327944
0.00092029497
0.00091416276
0.00091307845
0.00091499622
0.00091781968
0.00091945843
0.00091789678
0.00091147888
0.00089941321
0.00088232495
0.00086311049
0.00085195187
0.00088450566
0.0010711481
0.0016713485
0.0030552807
0.0054578928
0.0087666906
0.012644697
0.016647214
0.020272353
0.023153291
0.025024727
0.025718881
0.025161737
0.015939159
0.01572288
0.014238077
0.01181913
0.008943218
0.0061534369
0.0039139533
0.0024445888
0.0016505033
0.0013043433
0.0011938898
0.001194436
0.0012531116
0.0013517729
0.0014834536
0.0016348329
0.0017851288
0.0019431049
0.003446436
0.0036743437
0.0046706871
0.0053618745
0.0057215583
0.0048548316
0.0055220114
0.0043904161
0.0040341736
0.0037963356
0.0035172806
0.0030896531
0.0027131214
0.0024135899
0.0021415641
0.0019173981
0.0017423403
0.0016129186
0.0015227131
0.0014630339
0.0014251134
0.0014005265
0.0013812411
0.001360182
0.001332634
0.001298408
0.0012663012
0.0012794744
0.0015159506
0.0024616098
0.0049169631
0.0094545489
0.015862029
0.023353997
0.031182474
0.038584459
0.044916347
0.049764324
0.052840976
0.053966325
0.053063507
0.036434306
0.03602579
0.033335318
0.028807348
0.023081909
0.016978163
0.011390497
0.00708662
0.0042982116
0.0028273698
0.0022251072
0.0021085804
0.0022695454
0.0026355252
0.0031662721
0.0038122383
0.0045305173
0.0077900467
0.010117552
0.010032117
0.019213386
0.034267648
0.022825601
0.020746099
0.020871295
0.016542066
0.01451586
0.013618203
0.013077376
0.010985934
0.0094828932
0.0081208497
0.0068378347
0.0057408891
0.0048199971
0.0040726857
0.0034927338
0.0030573368
0.0027403651
0.0025139231
0.0023503391
0.0022245202
0.0021181779
0.0020275443
0.0019836155
0.0021626396
0.0031877407
0.006286004
0.012620558
0.022137397
0.033642633
0.045785446
0.05762726
0.068221485
0.076996184
0.083580349
0.087709636
0.089213092
0.088023045
0.06523237
0.064608528
0.060733984
0.054115555
0.045455819
0.035686199
0.025952275
0.01752422
0.011256168
0.0073137063
0.0054349684
0.0048504851
0.0051833032
0.0062308404
0.0078801375
0.009788592
0.016320949
0.019728635
0.041481208
0.026011298
0.08277411
0.075818249
0.06353352
0.057350641
0.047271765
0.037686942
0.039693506
0.037380131
0.03243857
0.029023119
0.023637395
0.019429844
0.016142926
0.013438503
0.011127841
0.009215557
0.0076612555
0.0064315923
0.0054794465
0.0047546088
0.0042050178
0.0037888884
0.0035052267
0.0034664347
0.0042121002
0.0071303293
0.014023937
0.025535344
0.040446757
0.056800417
0.073133101
0.088290422
0.10144912
0.11215494
0.12010357
0.12506354
0.12687647
0.12548668
0.099301644
0.098457569
0.093554607
0.085143756
0.073948786
0.06091702
0.047285324
0.034668495
0.024700316
0.021542685
0.013277835
0.011812418
0.012382821
0.014738912
0.018631885
0.029303893
0.033909516
0.045382179
0.14200473
0.15255897
0.15129092
0.022260569
0.068124134
0.06694556
0.067154009
0.061097226
0.051895249
0.035239175
0.029689756
0.02476138
0.020728447
0.017372144
0.014578576
0.012210543
0.010236784
0.0086334003
0.007395624
0.0066128374
0.0066198297
0.0085423612
0.014419814
0.025871236
0.042446809
0.062002971
0.082266269
0.10185034
0.1194888
0.13455067
0.1466901
0.15565953
0.16125409
0.16332625
0.16183429
0.13564258
0.13457827
0.12882551
0.11897942
0.10578853
0.090202516
0.073525643
0.058213164
0.056625118
0.041388664
0.031267416
0.028637388
0.025611245
0.029673426
0.037132778
0.057080878
0.088089615
0.23460732
0.21597481
0.089034717
0.038193406
0.10813124
0.085485979
0.078928709
0.070742433
0.061464253
0.03691438
0.031743788
0.027579943
0.023628079
0.020065818
0.016863002
0.014137606
0.012386213
0.012401477
0.015894565
0.024994956
0.040555099
0.061126855
0.084093186
0.10712671
0.12893913
0.14834216
0.16479421
0.17800996
0.18776956
0.1938781
0.1961979
0.19470819
0.17196972
0.17067577
0.16421816
0.1532402
0.13853638
0.12109501
0.10242855
0.085953596
0.085695533
0.1035614
0.053030596
0.038433034
0.047417015
0.058873128
0.076810621
0.082991738
0.032398185
0.21952816
0.32691479
0.35986416
0.068703083
0.12063365
0.083237812
0.077838819
0.071867417
0.067174428
0.038255016
0.033355467
0.028718762
0.024069678
0.020701808
0.020610857
0.025680838
0.037479451
0.055973465
0.079139624
0.10425147
0.12904086
0.15206362
0.17272423
0.19030556
0.20448384
0.21499694
0.22162269
0.2242379
0.22286358
0.20678584
0.20523025
0.19814039
0.18620341
0.17029822
0.15175458
0.13387022
0.16073702
0.099174233
0.028747202
0.039815612
0.06838725
0.098917646
0.096054692
0.343475
0.38346576
0.17748482
0.06155049
0.11108663
0.078344473
0.082350531
0.084452048
0.041956952
0.034993263
0.055722798
0.029143712
0.035550706
0.049308022
0.0697661
0.094314715
0.1204854
0.14618532
0.16997011
0.19124528
0.20979017
0.2251388
0.23667433
0.24401034
0.24705312
0.24592025
0.23927731
0.2373963
0.22964801
0.21673897
0.19961402
0.18039374
0.22809679
0.17297012
0.10773304
0.036478931
0.11672537
0.17086677
0.46470524
0.62143019
0.090760321
0.22985627
0.1158297
0.092850264
0.067577882
0.053457853
0.061503302
0.079174779
0.080490416
0.10489164
0.13132985
0.15726274
0.18141024
0.20337579
0.22294543
0.23946914
0.25268176
0.2611833
0.26488719
0.26413327
0.26919231
0.26689366
0.25837025
0.24434889
0.22629366
0.20728744
0.24163446
0.15342776
0.20865564
0.28299232
0.52595176
0.24190279
0.58806476
0.14714973
0.082859313
0.036821287
0.050219426
0.060791857
0.1035176
0.14445163
0.18097163
0.1622172
0.1861062
0.20874476
0.22976551
0.24848993
0.26355048
0.27383352
0.27846978
0.27820863
0.29674141
0.29392615
0.28448836
0.26950472
0.2520139
0.34380206
0.24255589
0.14071801
0.18596034
0.49761547
0.8131681
0.28626656
0.54663179
0.018638047
0.040177461
0.08803983
0.13241546
0.19592856
0.24391405
0.28050869
0.23042283
0.25335861
0.27135084
0.28334803
0.28894857
0.28915882
0.32251522
0.31913909
0.30874131
0.29245356
0.27202436
0.32831106
0.3485764
0.39921759
0.61563268
0.38436033
0.051006473
0.30657249
0.75288407
0.03729108
0.084215261
0.14369032
0.20308013
0.29298022
0.36959736
0.28146894
0.29231865
0.29784524
0.29815748
0.34738214
0.34358114
0.33263643
0.31602016
0.44290959
0.30490026
0.13442503
0.33105946
0.69395013
0.97059731
0.054675366
0.27575453
0.33649019
0.060410323
0.20153617
0.2946204
0.43636414
0.30475643
0.30680147
0.30631447
0.37227313
0.36845013
0.35754049
0.33920664
0.4149048
0.43976148
0.67107134
0.73897196
0.54897519
0.094612541
0.4687392
0.29258827
0.43061242
0.31883871
0.31615442
0.31421577
0.3978344
0.39504104
0.38867262
0.57675138
0.42914885
0.22084301
0.54938087
0.77195432
0.62514559
0.013088371
0.10574376
0.2243556
0.17198676
0.47800685
0.33105765
0.32523026
0.32190448
0.42381525
0.42272545
0.42196179
0.59701895
0.51265235
0.38075918
0.72970865
0.76214652
0.61555145
0.030164473
0.10622744
0.086710139
0.28588199
0.49533437
0.34057457
0.33369135
0.32946835
0.44920132
0.44960107
0.45131872
0.64957651
0.58187949
0.18412332
0.59005921
0.79561147
0.65768559
0.24945408
0.059087733
0.2291682
0.32261081
0.34186191
0.3463657
0.34173942
0.33725228
0.47296168
0.47401555
0.47408733
0.46972592
0.63777483
0.54799809
0.28457553
0.76998816
0.78369051
0.68018278
0.025037847
0.080347591
0.21550553
0.36586973
0.34916988
0.35311027
0.35010617
0.34569361
0.49409878
0.4951193
0.49400747
0.49031673
0.68350025
0.4343817
0.66266482
0.83977428
0.76588435
0.29998436
0.073148538
0.095000933
0.15353817
0.42112106
0.35994917
0.36191038
0.35952724
0.35522853
0.51149461
0.51229025
0.51107696
0.50861533
0.72119342
0.55972185
0.22422705
0.40733457
0.81159714
0.85616257
0.74099926
0.40191608
0.28013876
0.22685196
0.173918
0.12639599
0.090344439
0.06612848
0.047827967
0.034033473
0.023487376
0.014271821
0.0075384247
0.0052985697
0.0065791443
0.0097334272
0.014226509
0.020188825
0.029404738
0.040724193
0.045470106
0.044832582
0.069365782
0.097782786
0.10949444
0.47230196
0.37362121
0.37299506
0.37049776
0.36620203
0.52386106
0.52467589
0.52412133
0.521763
0.51099439
0.66582545
0.32951339
0.69496237
0.87027796
0.85541282
1.1548722
0.55554665
0.53686001
0.43727605
0.31456922
0.17864142
0.10306629
0.060985476
0.035309584
0.020220269
0.016834604
0.01463327
0.0096947376
0.0088806452
0.011713564
0.018869331
0.02734772
0.030536381
0.038982839
0.088958435
0.18486008
0.18871098
0.078506999
0.091163864
0.097132952
0.14427464
0.5241367
0.38947073
0.38619105
0.38323043
0.37879179
0.53012847
0.53109731
0.53163075
0.53115115
0.5280316
0.73962571
0.732825
0.53390471
0.83745259
0.88783926
0.84588003
0.9068987
0.72873361
0.40052812
0.26948876
0.20139463
0.005788775
0.0022851005
0.0030862534
0.0093252665
0.0085729715
0.018335097
0.052944711
0.095189099
0.090771527
0.086200292
0.091035265
0.18133932
0.57409277
0.40686713
0.40127183
0.39771451
0.39301236
0.529404
0.53058733
0.53259963
0.53520826
0.54045277
0.79692956
0.57390959
0.33424157
0.7785232
0.94330762
0.92147722
0.82273194
0.33058526
0.19122586
0.31592945
0.091054962
0.059930886
0.0428498
0.036522044
0.0091608907
0.0017539897
0.00048828028
0.00093447616
0.00073579302
0.001732149
0.0030821327
0.0043740504
0.0052880652
0.0099342352
0.0037417295
0.0089344094
0.016335699
0.033945031
0.072790981
0.042609248
0.081526842
0.088666648
0.4183746
0.61948604
0.42416719
0.41780232
0.4137458
0.40872247
0.52074896
0.52254331
0.52641994
0.53244372
0.54425688
0.82530262
0.7188852
0.28370697
0.60732653
1.0034809
1.7908121
1.7638778
1.4733324
0.90903654
0.31436551
0.11600761
0.018865921
0.011142802
0.0038575586
0.0008923591
0.00087078301
0.00113805
0.0019671792
0.0040284372
0.0055595737
0.012889264
0.016805427
0.0063068533
0.0072952291
0.016063611
0.019049162
0.028634916
0.071801073
0.071353669
0.057227768
0.54843063
0.65960808
0.44146436
0.43538425
0.43098479
0.42564533
0.50403423
0.50681562
0.51266188
0.5217632
0.53656457
0.55327542
0.82695979
1.0177584
0.14939644
0.86156193
1.2979879
2.1773266
1.7227021
0.89359116
0.6629318
0.4573061
0.35609268
0.085096798
0.076088424
0.070162199
0.064638723
0.060489421
0.055307974
0.049461331
0.043389596
0.038088406
0.03355046
0.029988451
0.027055626
0.022927167
0.0059158393
0.017725078
0.025839988
0.038238822
0.050565049
0.057059141
0.025263408
0.47447156
0.44460495
0.45610692
0.45322903
0.44891328
0.44336492
0.48011445
0.48384108
0.49142959
0.50296153
0.51987529
0.53810948
0.5463906
0.72248525
0.42469808
0.098635878
0.54963134
1.0041822
2.0768342
2.050341
1.0586261
0.20985325
0.18353568
0.12147958
0.1013312
0.086043449
0.073217489
0.062658217
0.053858744
0.046164077
0.039471153
0.033898622
0.034592038
0.026171728
0.0076046469
0.026234529
0.052284715
0.034460627
0.034268698
0.039673939
0.016900854
0.54074887
0.4588717
0.47074139
0.4707569
0.4669391
0.46136302
0.45016794
0.45459632
0.46356871
0.47693032
0.49535563
0.51563378
0.52891229
0.52469971
0.66838022
0.51708907
0.62583694
0.74848569
1.1840163
1.0524855
0.71430973
0.17250109
0.27802166
0.18676738
0.14573602
0.1194812
0.10038995
0.085172269
0.072509168
0.061865119
0.052710294
0.044695863
0.037764005
0.039308085
0.028283716
0.010361332
0.048840604
0.16362264
0.072146559
0.025475758
0.023715488
0.012235732
0.016384099
0.026848485
0.59312303
0.47413524
0.48536773
0.48754752
0.4845223
0.47909644
0.41561719
0.42049908
0.43052793
0.44532679
0.46505681
0.48748122
0.50648683
0.51557509
0.52043858
0.55652546
0.94719968
1.078992
1.0533127
0.93672919
0.66446481
0.34029305
0.25786365
0.20600469
0.16654342
0.13781896
0.1158662
0.098102419
0.083212483
0.070599335
0.059834021
0.050416977
0.042274204
0.045853708
0.03055581
0.017949131
0.10950314
0.19519948
0.13173744
0.047616859
0.035541849
0.040823823
0.060685825
0.091161087
0.100806
0.14741773
0.10532887
0.16445661
0.63920781
0.48854921
0.49939086
0.50325372
0.50119775
0.49605435
0.37807736
0.38321434
0.39400798
0.40992852
0.43082291
0.4551541
0.47903836
0.49827195
0.51753636
0.87716826
0.88997797
1.6482454
1.0830641
0.94186047
0.6959283
0.36679131
0.26866133
0.22199543
0.1843777
0.15480925
0.13117308
0.11154563
0.094826867
0.080403238
0.068018649
0.057032724
0.047514879
0.054963353
0.034782044
0.015917541
0.12921241
0.11145175
0.04114913
0.024634331
0.066530025
0.18565622
0.27750228
0.14633336
0.14306587
0.12336759
0.12657706
0.061337784
0.11667694
0.6630874
0.50036665
0.51205151
0.51752172
0.51653361
0.51176134
0.33922762
0.34446586
0.35573861
0.37243582
0.39423757
0.42005899
0.44750958
0.47429142
0.50630318
0.82827176
0.95132288
1.7839717
1.8304054
1.0600121
0.7984134
0.36723929
0.27699683
0.23405728
0.19867788
0.16915182
0.14463486
0.12376622
0.10568932
0.090021534
0.076234287
0.063925518
0.053135809
0.06767495
0.043482113
0.032109733
0.015507486
0.07828766
0.10162507
0.027400555
0.0038499725
0.12237585
0.20860184
0.28589614
0.1696419
0.16838285
0.15176394
0.14301493
0.05575827
0.24221618
0.67868842
0.50862472
0.5231545
0.53016662
0.53017436
0.52580566
0.30065758
0.30587733
0.31734815
0.33444101
0.35677169
0.383552
0.41332948
0.44512016
0.48603846
0.82775518
0.94797968
1.5546188
1.1009172
1.6699981
0.85536196
0.35011905
0.28295234
0.24353838
0.20893727
0.17925164
0.15395868
0.1320927
0.11303208
0.096373227
0.081677573
0.068574455
0.05687993
0.079636419
0.050506056
0.043156984
0.014477537
0.030793672
0.032701293
0.018059309
0.1018774
0.20334407
0.33986882
0.25398683
0.22687541
0.27750712
0.45042332
0.51388863
0.53324566
0.54122473
0.54188088
0.537831
0.26373204
0.26883906
0.28024328
0.29733963
0.31973756
0.34684072
0.37772229
0.41193975
0.45420892
0.5274087
0.90407397
1.4089896
1.3196004
0.99586779
0.95381336
0.32919792
0.39671249
0.36826571
0.32224615
0.27881132
0.2406294
0.20710696
0.17747217
0.1512916
0.12840365
0.10834355
0.090383243
0.072264992
0.050041995
0.037577334
0.0075281563
0.020301877
0.015201254
0.23263533
0.71104454
0.39865839
0.46543542
0.52314711
0.54310099
0.55074155
0.5514344
0.54749893
0.22950127
0.23442221
0.24552524
0.26225177
0.28423549
0.31099282
0.34183578
0.37635472
0.41709719
0.47544529
0.82209638
0.88665606
1.2051029
0.90608308
0.83876492
0.66118479
0.56330278
0.50655184
0.46478473
0.43275056
0.59747909
0.41608802
0.36164911
0.31273218
0.26646814
0.22051983
0.17520851
0.13660074
0.10800073
0.088501721
0.075916271
0.073059084
0.034260104
0.032320258
0.034732212
0.021667742
0.0082302048
0.31453295
0.59324024
0.4956439
0.53693123
0.55262758
0.55835908
0.55841202
0.55437302
0.19865998
0.20333948
0.21395065
0.22999106
0.25112988
0.27695091
0.30685541
0.34032686
0.3784469
0.42805999
0.7391579
0.79526059
1.0816522
1.157923
1.3552465
0.79376156
0.69447842
0.61939125
0.55257221
0.47932453
0.62972074
0.28536764
0.12952799
0.075980078
0.049530812
0.029686111
0.017374899
0.010928587
0.0089049884
0.0076550927
0.0066081229
0.0064546853
0.014583879
0.02773406
0.04531475
0.021086491
0.42569475
0.44524066
0.51606847
0.54856599
0.55942721
0.5629447
0.56215723
0.55795698
0.1715591
0.1759584
0.18593685
0.20105219
0.22101315
0.24544713
0.27378768
0.30540483
0.34044284
0.3835903
0.66430035
0.70511477
0.99772518
0.94885732
1.065486
0.73543664
0.66575844
0.5988272
0.54289547
0.46852693
0.60521797
0.26271753
0.11185679
0.046391551
0.043270264
0.013769177
0.01135857
0.019002888
0.0069904335
0.0045429485
0.0035037636
0.0039563892
0.0077830356
0.0099338961
0.01028289
0.0061406548
0.20711378
0.54865579
0.46272564
0.52230572
0.55066111
0.56047662
0.5632036
0.56204143
0.55784497
0.14826201
0.15235743
0.16161697
0.17565436
0.19421386
0.2169544
0.24331959
0.27256687
0.30411256
0.33936351
0.38031835
0.61827654
0.57295128
0.51693457
0.69621732
0.7355327
0.51016887
0.48014425
0.72192835
0.67357473
0.51759079
0.17634723
0.068048521
0.039144766
0.02169858
0.017300296
0.017226984
0.025441723
0.019525816
0.021033281
0.0098941106
0.0066857662
0.018934082
0.01425684
0.0104723
0.07281702
0.33941717
0.38782775
0.46998346
0.51923651
0.54477857
0.55530553
0.55868597
0.55785235
0.55393017
0.12859872
0.13237956
0.14088245
0.1537685
0.17080914
0.19168432
0.21583642
0.24240826
0.27021973
0.29862148
0.32672753
0.51621572
0.43253659
0.3394166
0.31922283
0.32061557
0.31343015
0.31044483
0.31368516
0.29159214
0.25581889
0.20550563
0.15260066
0.114227
0.088062721
0.069570409
0.058503378
0.051476837
0.049791546
0.047749979
0.036778691
0.021920613
0.019175485
0.02371036
0.017260402
0.19535051
0.30857428
0.40273715
0.46891935
0.51015839
0.53355801
0.54508847
0.54976938
0.54981159
0.54641655
0.11224299
0.11571047
0.12346005
0.13518863
0.15068513
0.16964403
0.19151161
0.21536512
0.23969963
0.26270916
0.2822898
0.42922319
0.49140461
0.13319473
0.11934523
0.11123446
0.10459639
0.10296327
0.11241809
0.12429229
0.13475913
0.14146924
0.12853126
0.097117583
0.060932013
0.034111608
0.026507822
0.02890167
0.037368271
0.043446351
0.058703419
0.031125366
0.029087674
0.032343712
0.060579431
0.060472426
0.31516633
0.33383549
0.40855943
0.46200429
0.49707811
0.5187754
0.5311261
0.53718714
0.53838405
0.53570068
0.098788277
0.10195631
0.10898954
0.11960689
0.13360638
0.15069472
0.17033757
0.19162448
0.21302586
0.23227361
0.24660497
0.38169399
0.46933175
0.0099890742
0.0097665885
0.019593112
0.034206233
0.039899422
0.025114657
0.011607758
0.19479034
0.2683948
0.34818997
0.40743313
0.45110678
0.48138532
0.50164255
0.51450483
0.52174993
0.52413096
0.52226311
0.08779992
0.090695885
0.097074743
0.10666361
0.11926384
0.13459371
0.15215041
0.1710855
0.18999515
0.20666478
0.21767911
0.34374826
0.20533907
0.0046844781
0.011711939
0.011576779
0.0052294626
0.046123787
0.022980742
0.01465828
0.0096060255
0.083931513
0.29860109
0.28955584
0.35335834
0.40120468
0.43751894
0.4640378
0.48300933
0.49608365
0.50420847
0.5076046
0.50651111
0.078858841
0.081522816
0.087324317
0.095988509
0.1073172
0.12103997
0.136691
0.15350356
0.17025005
0.18498789
0.19451652
0.31553328
0.22129635
0.084175625
0.01059298
0.014838732
0.012342501
0.0037898629
0.012985226
0.0052790568
0.0033099718
0.0057016524
0.19294885
0.23455395
0.30114163
0.35200015
0.39135879
0.42212631
0.44566618
0.46346781
0.47651316
0.48519589
0.48932571
0.48885326
0.071594073
0.074073686
0.07937853
0.087228835
0.097426269
0.10971157
0.12365794
0.13858774
0.15345954
0.16665061
0.17511961
0.1656798
0.23573967
0.18172013
0.0083734794
0.014729569
0.01284988
0.0023538045
0.0036094416
0.0038553666
0.023428235
0.043922794
0.031193851
0.12469703
0.28401237
0.25131477
0.30472429
0.34604902
0.37902367
0.40556055
0.42671141
0.44344425
0.45627693
0.46522401
0.46979861
0.46980598
0.065712425
0.068043373
0.072923667
0.080066221
0.089271417
0.10029006
0.11273381
0.12601247
0.13925789
0.15115866
0.15930337
0.15580559
0.24248213
0.31400718
0.0073715163
0.012903535
0.015304072
0.012441913
0.028404538
0.065674418
0.085101033
0.097422469
0.038098363
0.10065969
0.20457048
0.20646689
0.26003326
0.30262423
0.33686192
0.36499893
0.38828481
0.40750565
0.42325873
0.4357397
0.44470472
0.44948571
0.4498616
0.060985294
0.063183614
0.067696297
0.074224814
0.08256563
0.092477076
0.10360533
0.11544018
0.1272676
0.13806124
0.14608734
0.14653455
0.24375676
0.16629771
0.010909108
0.015697333
0.011504042
0.0042584985
0.088571805
0.19548627
0.091831922
0.081073106
0.12610519
0.16929011
0.1686677
0.21916932
0.26162447
0.29644812
0.32544442
0.34990561
0.37067535
0.38831734
0.40316186
0.41518379
0.42397319
0.42878761
0.42944611
0.057213005
0.059290394
0.063479543
0.069472381
0.077060168
0.086005714
0.09598409
0.10655366
0.11713161
0.12693478
0.13479243
0.13782217
0.24435845
0.20347113
0.18650263
0.0097372179
0.01398685
0.014208398
0.014105858
0.11316638
0.093202364
0.15320722
0.13833345
0.18251073
0.22317793
0.2580237
0.28745388
0.31259147
0.33425483
0.35305247
0.36937255
0.38335758
0.39483626
0.4033076
0.40803836
0.40891198
0.054216914
0.056194139
0.06009586
0.06561695
0.072545131
0.080645865
0.089617233
0.099072876
0.10853416
0.11740379
0.12488774
0.12915884
0.1234174
0.22669164
0.18019422
0.11214597
0.011320566
0.01462967
0.010596846
0.15874617
0.14882741
0.1872616
0.22153066
0.25120915
0.27677345
0.2989988
0.31848601
0.33569082
0.35086373
0.36401653
0.37488656
0.38294158
0.38751193
0.38854483
0.051862273
0.053757831
0.057401266
0.062501648
0.068846427
0.076203632
0.084289669
0.092761123
0.1012161
0.10918412
0.11608483
0.12072622
0.11913703
0.1101025
0.20452005
0.15606797
0.14024687
0.0084217207
0.013158786
0.013049457
0.017435418
0.087427855
0.18228077
0.15397318
0.18751197
0.21696656
0.24275107
0.26531712
0.28522977
0.30295219
0.31881266
0.33294918
0.34528109
0.35549506
0.36307132
0.36743012
0.36857329
0.050058454
0.051875298
0.05528136
0.060000186
0.065821697
0.072517767
0.079820463
0.087420334
0.094971536
0.10208857
0.10831582
0.11284273
0.11331879
0.1085896
0.097345273
0.081851677
0.14234527
0.095301386
0.070889898
0.0059390817
0.011166488
0.0132159
0.026277302
0.10806366
0.12302633
0.15656807
0.18538868
0.21091181
0.23355252
0.25366729
0.27166904
0.28790179
0.30258062
0.31575101
0.32726802
0.3367975
0.34385997
0.34797264
0.34918096
0.04873325
0.050466197
0.053647839
0.058013117
0.063356608
0.069456107
0.076058693
0.082883557
0.089628662
0.095970713
0.10153927
0.10575911
0.10719811
0.10487785
0.098158769
0.088064531
0.076043392
0.13424475
0.099515816
0.091275063
0.0097527376
0.012739124
0.012336925
0.011217053
0.062297947
0.14350042
0.12780525
0.15671318
0.18167032
0.20400823
0.22407928
0.24216049
0.25855093
0.27349213
0.28710393
0.2993591
0.31007102
0.31890697
0.32544116
0.32928358
0.3305155
0.047828438
0.049471455
0.052435356
0.056465113
0.061362308
0.066913172
0.072880474
0.079009293
0.085034272
0.090681004
0.095644141
0.09949861
0.10134232
0.1004072
0.096310849
0.089530061
0.080821399
0.069807029
0.056207864
0.091691796
0.049927625
0.030780337
0.0065003798
0.010653083
0.014129978
0.027620078
0.027874884
0.087689583
0.10072514
0.13049675
0.15515865
0.17693631
0.19667425
0.21462742
0.23100579
0.24601851
0.25981956
0.27245306
0.28383811
0.29376464
0.30191565
0.30792305
0.31147919
0.3126966
0.047302886
0.048851381
0.051599664
0.055303311
0.059773757
0.064808619
0.07018756
0.07568018
0.081053169
0.086071993
0.09048385
0.093965047
0.095925778
0.095791938
0.09328516
0.08859528
0.082085189
0.073547591
0.062970124
0.0514883
0.079792875
0.046876168
0.053588121
0.015155769
0.014685745
0.017715566
0.012759986
0.0048047315
0.051223089
0.077492018
0.10639037
0.13113152
0.15241969
0.17161101
0.18921499
0.20540912
0.22034467
0.23416241
0.24694344
0.25867372
0.26923493
0.27840733
0.28589739
0.29139154
0.29465232
0.29582175
0.04713489
0.048585784
0.051117041
0.054496458
0.058548769
0.063086203
0.067906826
0.072804057
0.077573319
0.082013597
0.085915379
0.089027229
0.090947914
0.091253799
0.089715212
0.086360145
0.081326694
0.074466652
0.065836069
0.056192043
0.046486165
0.037085815
0.049348471
0.023503317
0.020726829
0.019102501
0.023557015
0.017947503
0.01433292
0.019275696
0.086739651
0.085270069
0.10933447
0.13028118
0.14891913
0.16600496
0.1818462
0.19656793
0.21026936
0.22303867
0.23489946
0.2457952
0.25558333
0.2640439
0.27090859
0.27591253
0.27887621
0.27997005
0.047323532
0.048674793
0.050984729
0.054035093
0.057667839
0.06171338
0.065990085
0.070314739
0.07450903
0.078400621
0.08181572
0.084555777
0.086336231
0.086840919
0.085867203
0.083350504
0.079292746
0.073573918
0.066271274
0.058076235
0.049713635
0.041757543
0.035596009
0.030431164
0.027586276
0.026204115
0.026277501
0.024807573
0.025346946
0.0159792
0.0061259777
0.055948574
0.068007107
0.090324314
0.11047828
0.12851253
0.14501378
0.16036031
0.17473033
0.18820451
0.20084052
0.21268155
0.22370905
0.23383652
0.24290739
0.2507068
0.25699106
0.26153535
0.26420719
0.2652041
0.04788955
0.049139995
0.051221822
0.053932194
0.05713458
0.060681519
0.064413945
0.068172055
0.071801737
0.075155422
0.078088246
0.080440494
0.082000797
0.082526091
0.081830683
0.079796812
0.076350914
0.071413948
0.065162178
0.058236624
0.051171171
0.044654578
0.039544557
0.035899077
0.033864763
0.032901488
0.032353611
0.03081536
0.029110283
0.029788687
0.022172011
0.013713004
0.0070862734
0.037567645
0.089362611
0.074583045
0.093294341
0.11043096
0.12621914
0.14097191
0.15486382
0.16799094
0.18039424
0.19210006
0.20311361
0.2133859
0.22281041
0.23122394
0.23841898
0.24417352
0.24829429
0.25068641
0.25157205
0.04887612
0.050025456
0.051870255
0.054224016
0.056976376
0.060006303
0.063180086
0.066361914
0.069420295
0.072229276
0.074666855
0.076601319
0.077867249
0.078269407
0.077634545
0.075824695
0.072752462
0.068464354
0.063163423
0.057317382
0.05151975
0.046426652
0.042629899
0.040252976
0.039101877
0.038602572
0.037972235
0.03625065
0.033491574
0.031007374
0.027766401
0.027417053
0.01989933
0.01722489
0.067611075
0.06220614
0.079137229
0.094879036
0.10968999
0.123691
0.13699358
0.14965653
0.16171999
0.17319461
0.18407988
0.19435214
0.20394074
0.21272677
0.22054477
0.22719572
0.23247461
0.23621226
0.23834252
0.23910901
0.050348277
0.051397608
0.052994958
0.054970398
0.057244627
0.059727913
0.06231525
0.064896143
0.06736099
0.069602902
0.071517909
0.072994016
0.073894678
0.07405611
0.073323968
0.071577169
0.068828434
0.065072222
0.06053904
0.055698026
0.051126507
0.047391136
0.044896797
0.04367649
0.043400083
0.043430759
0.042923131
0.041070793
0.037999246
0.034879342
0.031507155
0.028547531
0.02557288
0.026612308
0.021855958
0.015550766
0.093200193
0.10129984
0.068120503
0.082159652
0.095608485
0.10860798
0.12115544
0.13323827
0.14484984
0.15599237
0.16665272
0.17680809
0.18641377
0.19538469
0.20359496
0.21087964
0.21704742
0.22190605
0.22530321
0.22719374
0.2278389
0.05239015
0.053342754
0.054681714
0.056252991
0.058013435
0.059909941
0.061870303
0.063811689
0.065646669
0.067285915
0.068640191
0.069611902
0.070083648
0.069919029
0.06901408
0.067299514
0.064728718
0.06138561
0.057543583
0.053656898
0.05024801
0.047783972
0.046533233
0.046429553
0.04705405
0.047678189
0.047363134
0.045417045
0.042333226
0.039100401
0.035458831
0.031861121
0.029192006
0.028048405
0.026328043
0.036249649
0.031629172
0.1174813
0.098020569
0.060427993
0.07242884
0.084202069
0.095884976
0.10744761
0.11879161
0.12983646
0.14053845
0.15087384
0.16081191
0.1703129
0.1793174
0.18773156
0.19542614
0.20223821
0.20798263
0.21247567
0.21557548
0.21725083
0.21777689
0.055097978
0.055960104
0.057030566
0.058169645
0.05937483
0.060635456
0.061917063
0.063167919
0.064324487
0.065315012
0.06606359
0.066484753
0.066477727
0.065953358
0.064837371
0.063043321
0.060586674
0.057612678
0.054419681
0.051434224
0.049118164
0.0478531
0.047808318
0.048830567
0.050400889
0.051656998
0.051567609
0.049644099
0.046770849
0.043457279
0.039654382
0.036136081
0.034098022
0.034763999
0.03594799
0.036039529
0.089891532
0.10401249
0.055605817
0.065613108
0.075513549
0.085671708
0.096012532
0.10642041
0.11675354
0.12690372
0.13680827
0.1464269