/*--------------------------------*- C++ -*----------------------------------*\
  =========                 |
  \\      /  F ield         | OpenFOAM: The Open Source CFD Toolbox
   \\    /   O peration     | Website:  https://openfoam.org
    \\  /    A nd           | Version:  8
     \\/     M anipulation  |
\*---------------------------------------------------------------------------*/
FoamFile
{
    version     2.0;
    format      ascii;
    class       volScalarField;
    location    "10800/air";
    object      k;
}
// * * * * * * * * * * * * * * * * * * * * * * * * * * * * * * * * * * * * * //

dimensions      [0 2 -2 0 0 0 0];

internalField   nonuniform List<scalar> 
167754
(
0.024028514
0.024017777
0.023977642
0.023919303
0.023858314
0.023806009
0.02376731
0.023742535
0.023730744
0.023730002
0.023737647
0.023752175
0.023771579
0.023793534
0.023815331
0.023833753
0.023846119
0.023852121
0.02385422
0.023850296
0.023840615
0.023864211
0.023907837
0.023927013
0.023934778
0.023943835
0.02395216
0.023959308
0.023964547
0.023966724
0.023966161
0.023963541
0.023959194
0.023952688
0.023944259
0.023933774
0.023921034
0.023905812
0.023887946
0.023867504
0.023844684
0.023819942
0.023794016
0.023767861
0.023751741
0.023746637
0.023746653
0.023758066
0.023795603
0.023885268
0.024096422
0.024459227
0.024992234
0.025675086
0.026439167
0.02714139
0.027652098
0.027856595
0.027706173
0.032983526
0.032913929
0.032435569
0.031748462
0.031065082
0.030525099
0.03016893
0.02996638
0.029872188
0.029851006
0.02988042
0.029945402
0.030034472
0.030136402
0.030238281
0.03032217
0.030368473
0.030368796
0.030345469
0.030342017
0.030353222
0.03047017
0.03064122
0.030724529
0.030704654
0.030698307
0.030670959
0.03064627
0.030625779
0.030604347
0.030593354
0.030596196
0.030606099
0.030620595
0.030636664
0.030650644
0.030657978
0.030653776
0.030632657
0.030590042
0.030522815
0.030430547
0.030316223
0.030186777
0.030059823
0.029967618
0.029946225
0.030049713
0.030451368
0.031505996
0.033845031
0.037970148
0.043935657
0.051147575
0.058531152
0.064960723
0.069392155
0.07111291
0.069802249
0.060111234
0.059620842
0.056340489
0.051411718
0.046271383
0.042086204
0.039330234
0.037835569
0.037167096
0.036957873
0.036997704
0.037181108
0.0374545
0.037777996
0.038107667
0.038386252
0.038560901
0.03862346
0.038602236
0.038517663
0.03839853
0.038987532
0.039797277
0.039947941
0.039779653
0.039582632
0.039349025
0.039125083
0.038925719
0.038708906
0.038538854
0.038469322
0.038457273
0.038497478
0.038577929
0.038681977
0.038791849
0.0388879
0.038948843
0.038953118
0.038881466
0.0387212
0.038471985
0.038149898
0.037795104
0.037509859
0.037528828
0.038393208
0.04154967
0.049495629
0.064495055
0.086491388
0.11347931
0.14159876
0.16722396
0.18760814
0.20085992
0.20582379
0.20195822
0.14593328
0.14440953
0.13353774
0.11592594
0.095330557
0.0759694
0.061177215
0.052108773
0.04768519
0.046024952
0.045722644
0.046073573
0.046784823
0.04772043
0.048778352
0.04981517
0.050620928
0.051029462
0.051142457
0.052314605
0.050705346
0.05309999
0.059379858
0.060731568
0.059532139
0.059475055
0.058273061
0.057060465
0.055717013
0.053922594
0.052297571
0.051190084
0.050309789
0.049705565
0.049361546
0.049233205
0.049263348
0.049385466
0.049529941
0.049626542
0.049606355
0.049411455
0.049012101
0.048426168
0.047748002
0.047311668
0.048253793
0.053890196
0.07071139
0.10423185
0.15332554
0.21126644
0.27110737
0.32716598
0.37435208
0.40997378
0.43236823
0.44057171
0.43410825
0.31837376
0.3154401
0.29490085
0.2599111
0.21523086
0.16738892
0.12396508
0.091292688
0.071297886
0.061827778
0.058750491
0.0588989
0.060765642
0.063759803
0.06759477
0.071811104
0.075803166
0.079819365
0.074223223
0.077051193
0.089474189
0.097149373
0.10111509
0.14137864
0.098404911
0.13148184
0.12428148
0.11948995
0.11395309
0.10491694
0.096512625
0.089709145
0.083294944
0.077853821
0.073506766
0.070249405
0.067978015
0.066500306
0.065597407
0.065042413
0.064607328
0.064083562
0.063326837
0.062323192
0.061318282
0.06152964
0.067813826
0.09136688
0.14324738
0.22214635
0.31590959
0.41156428
0.5015038
0.58023321
0.64379304
0.6905044
0.71938654
0.72984713
0.72158142
0.55888217
0.55464588
0.52613834
0.47638333
0.40969312
0.33248127
0.25371263
0.18446588
0.13248371
0.10111401
0.087099766
0.08450631
0.088775157
0.09779316
0.11010023
0.12416144
0.13897876
0.12668921
0.15078117
0.14978062
0.14523275
0.15177937
0.25295445
0.23738662
0.23889998
0.20262962
0.18490579
0.1770586
0.27434276
0.24427508
0.22120586
0.19970834
0.17823449
0.15889303
0.1418024
0.12723553
0.11542531
0.10623064
0.099353804
0.094356233
0.090704175
0.087845132
0.085342091
0.08309543
0.081859214
0.085908631
0.10897568
0.16937316
0.27047646
0.39657439
0.52802106
0.65177957
0.76280155
0.85603419
0.92970466
0.98316543
1.01598
1.0278239
1.0185528
0.83105431
0.82570076
0.79178216
0.732094
0.65022743
0.55150721
0.44408083
0.34030917
0.25240585
0.18922529
0.15574305
0.14494244
0.15185166
0.17181872
0.20101778
0.23258247
0.20731119
0.23687669
0.24782873
0.13937051
0.38715405
0.5746899
0.51283587
0.33375165
0.26685397
0.35766075
0.36801137
0.35203832
0.3194441
0.29570285
0.41270854
0.36177717
0.31943586
0.28249053
0.24900422
0.21966705
0.19448366
0.17351658
0.15652225
0.1430636
0.13248199
0.124154
0.11819362
0.11704373
0.13173165
0.18506557
0.29106246
0.43751916
0.59910884
0.75565136
0.89774896
1.02086
1.1222232
1.2014905
1.2586939
1.2937289
1.3064213
1.2967442
1.106165
1.0998533
1.0625049
0.99681849
0.90592264
0.79419755
0.66868116
0.54187158
0.43090029
0.24705658
0.28365947
0.26247575
0.27149716
0.30590421
0.35911031
0.3070019
0.3411715
0.27181774
0.89023975
0.93030708
0.58348026
0.16946456
0.33556978
0.52682885
0.52677418
0.49352155
0.4425626
0.54563903
0.48618378
0.42986456
0.38111477
0.33834579
0.30080808
0.26728614
0.23792155
0.21284958
0.19245317
0.17876051
0.17819382
0.20975623
0.29727668
0.44202767
0.61983448
0.80298075
0.97379503
1.1260813
1.2553913
1.3608669
1.4429918
1.5021646
1.5384484
1.551749
1.5421417
1.3673649
1.360179
1.3206709
1.2515888
1.1559539
1.0377293
0.90365351
0.77201777
0.47567709
0.38628743
0.31930494
0.30055243
0.44369719
0.49140115
0.5743527
0.48386906
0.40915573
1.2510311
1.1851375
0.30323596
0.24173871
0.45995847
0.62790634
0.59394267
0.55091121
0.50035929
0.56687179
0.51164394
0.4649605
0.41857497
0.37496271
0.33382635
0.29677516
0.27135195
0.27049836
0.31857229
0.43259977
0.60182162
0.79649027
0.99004456
1.1673442
1.3237461
1.4558733
1.5634158
1.6471443
1.7075571
1.7447484
1.7586859
1.7495816
1.6064913
1.5984039
1.5574135
1.4864073
1.3885752
1.2680108
1.1327114
1.0065969
0.63256281
0.45526342
0.29238656
0.37000268
0.42359371
0.49034769
0.58896502
0.62585769
0.20999262
0.75820973
1.5636668
1.0550614
0.34497124
0.50177453
0.62141323
0.59183047
0.55933093
0.53308937
0.58227778
0.53060022
0.47972316
0.42600806
0.38438889
0.38217933
0.44243317
0.57191807
0.75196691
0.95228951
1.1486188
1.3274725
1.4834327
1.6167872
1.726142
1.8117678
1.8738389
1.9122909
1.9272018
1.9190437
1.8207021
1.8115416
1.7691975
1.6966842
1.5976255
1.4783189
1.3589765
0.96579527
0.70050877
0.16346927
0.24194751
0.54631778
0.70132729
0.69276076
1.6251651
1.7460882
0.51666167
0.32299911
0.47645637
0.59687196
0.61379483
0.62324976
0.62226089
0.55139624
0.47334955
0.48583758
0.55499093
0.69277892
0.87748087
1.077036
1.271322
1.4487167
1.6036941
1.7361551
1.8473546
1.9368784
2.0026059
2.0436094
2.0602226
2.0535023
2.010348
1.9997845
1.9556853
1.881044
1.7797596
1.6630344
1.2239442
1.0193279
0.46998686
0.19425011
0.49316651
0.63977548
1.9880673
1.5339963
0.41741062
0.77518812
0.77492977
0.66992981
0.54322644
0.46279509
0.50773136
0.6017009
0.97314353
1.1639765
1.3534009
1.5277039
1.6813061
1.8149199
1.9296588
2.0236496
2.0968957
2.1429827
2.1624697
2.1577178
2.1778108
2.1654034
2.1187727
2.0408886
1.9384586
1.8279109
1.2763378
0.94543058
0.72965818
0.90835802
2.156067
0.83207559
1.4537679
0.91771194
0.40594264
0.23161316
0.28205964
0.50946915
0.72937573
0.9128704
1.0601467
1.5672358
1.717781
1.8534736
1.9754354
2.0803232
2.1620668
2.21637
2.2399611
2.237552
2.3268874
2.3122159
2.2623148
2.1818696
2.0865855
1.6167603
1.2836487
0.56524337
0.68951124
2.0816283
1.8336229
1.4308625
1.3887497
0.1066711
0.24561973
0.65984482
0.86512776
1.1243101
1.3014686
1.4267498
1.9872567
2.1152606
2.2109588
2.2725013
2.2999702
2.2995391
2.4623999
2.4453712
2.3919685
2.3075037
2.2003684
1.5744294
1.0341718
1.7863334
2.3983768
1.1210954
0.21042812
1.5060574
1.7329049
0.22093043
0.4015815
0.91699068
1.1555455
1.4755403
1.7213733
2.2737579
2.325785
2.3510152
2.3503934
2.5897603
2.5712192
2.5167643
2.4337841
1.922861
1.5050651
0.55033729
0.99766535
2.5919227
2.0518925
0.30072037
1.4119845
0.74595489
0.30577452
0.72181645
1.4856224
1.9264179
2.3969794
2.4016025
2.3960491
2.7140289
2.6960996
2.6438834
2.5564308
1.8472981
1.2132024
2.5319557
2.7165042
1.4286231
0.69219874
1.2706309
0.90201631
1.9152812
2.473775
2.4529271
2.4394722
2.8384661
2.8260436
2.7978661
2.2982734
1.8967453
0.78112415
1.403622
2.7851345
2.4321054
0.087693598
0.74996707
0.78443758
0.65221777
2.054389
2.5376592
2.501407
2.4808514
2.9618868
2.9575842
2.9561003
2.3532567
2.1330997
0.82407868
2.6794664
2.7779167
1.5348982
0.20818537
0.75780528
0.30845558
0.9198692
2.1033201
2.5868357
2.5457106
2.520723
3.0798375
3.0821592
3.0917876
2.4888359
2.3181731
0.72522363
2.3244073
2.8455045
2.5320724
0.65110861
0.51021676
0.80228153
1.5897463
2.6056712
2.6169657
2.5870456
2.5608975
3.1880714
3.1930756
3.194366
3.1779024
2.4630775
1.4124165
0.9096503
2.7781515
2.8310218
1.6347633
0.13401518
0.63084727
0.78199517
1.7262795
2.6417896
2.6505663
2.629067
2.6035764
3.282824
3.287491
3.2830185
3.2682414
2.5756422
1.9099722
2.5101875
2.9539702
2.8238814
0.92700063
0.36638586
0.7123134
0.62730723
1.8967225
2.6940234
2.6933565
2.675452
2.6509126
3.3599276
3.3634387
3.3580931
3.3480685
2.6667661
2.2561
0.56051167
1.1498817
2.8771164
2.9999107
2.7604956
1.8636793
1.4637755
1.2706904
1.0643419
0.86030067
0.68826083
0.56032316
0.45345485
0.36289799
0.2849888
0.20406021
0.12981989
0.10069842
0.12002503
0.15728486
0.20153161
0.25272976
0.32153404
0.39395743
0.42093989
0.42256235
0.57351098
0.7330507
0.49853525
2.043581
2.7598814
2.7468039
2.7286942
2.7045585
3.414525
3.4180236
3.4152638
3.4046495
3.3572783
2.5288041
1.0020314
2.591049
3.0214367
3.017876
2.3423873
2.2931627
1.4036536
1.2221807
0.9816853
0.67017324
0.46555118
0.33148558
0.23353806
0.15899926
0.14022797
0.12840844
0.094860108
0.088104781
0.10706461
0.14896737
0.19115315
0.20621144
0.24800723
0.43085449
0.68712914
0.68831364
0.62580189
0.70294899
0.45947399
0.54957021
2.1930865
2.8355303
2.8096573
2.7896724
2.7652477
3.4426017
3.4468175
3.4486582
3.4459465
3.4319219
2.7108277
1.7046111
1.3787527
2.9408921
3.0773839
3.0272742
2.0520054
1.7754096
1.8384939
1.3959933
0.73435231
0.076102464
0.059437778
0.048347081
0.093646805
0.089054323
0.15947441
0.48209022
0.70280541
0.68667336
0.67415961
0.43555388
0.71846044
2.3271149
2.9164561
2.8803688
2.8580987
2.8328826
3.4408102
3.4460335
3.4542739
3.464858
3.4865757
2.8480753
2.2926981
0.75791592
2.8005053
3.2010145
3.1793575
2.9978019
1.0438959
0.70862829
0.98029625
0.41151796
0.31061509
0.25468696
0.24849426
0.10088591
0.03378217
0.01474273
0.021637478
0.017691544
0.031902266
0.046760773
0.058729918
0.10366778
0.154078
0.049400922
0.098808275
0.22594779
0.36651417
0.59849304
0.65628154
0.64544707
0.42107736
1.18807
2.4458928
2.9946325
2.9568057
2.9328558
2.906633
3.4051822
3.4129696
3.4293791
3.4548934
3.5055914
2.9174845
2.6654773
0.86516818
2.3797777
3.3388194
3.1260981
3.1331698
2.8048393
2.1324036
1.6322829
0.4956238
0.17843487
0.12699502
0.063433007
0.023811355
0.022243533
0.025875048
0.036111566
0.057339597
0.072839646
0.12576878
0.21254229
0.063455953
0.086323303
0.21922172
0.38824986
0.50869015
0.58772633
0.58504395
0.30836032
1.4236785
2.5461905
3.0730608
3.0373409
3.0122979
2.985075
3.3341911
3.3463418
3.371594
3.4108473
3.4748743
3.5480685
2.9308692
2.1382686
0.60318215
3.007863
3.9961042
3.6146336
3.222278
2.0642502
1.6708094
1.3041957
1.0939167
0.4093182
0.38339896
0.55153404
0.51765965
0.49463816
0.46666332
0.4339108
0.39754433
0.36439183
0.33532781
0.31222041
0.29318832
0.26159361
0.07578673
0.23117777
0.29899836
0.39117117
0.4691482
0.50314031
0.1741538
2.0556307
3.0997474
3.1398252
3.1183742
3.0939678
3.0661915
3.2303417
3.246933
3.2803297
3.3307959
3.4045289
3.4829294
3.5189057
2.6752122
1.8734439
0.46820572
2.2273647
3.3351255
3.4529889
3.5203051
2.5132945
1.2036598
1.0709271
1.2740538
1.1240844
1.0078748
0.90506747
0.81556908
0.73767001
0.66624037
0.60093777
0.54387551
0.34541279
0.28759903
0.083032986
0.29699768
0.45978389
0.35562213
0.36256092
0.39492664
0.13684861
2.2417364
3.1652225
3.205307
3.1969351
3.1750494
3.1475551
3.0973128
3.1174955
3.1578323
3.2173444
3.2986286
3.3863467
3.4421937
3.4211471
2.5323136
2.132849
3.8535836
4.3672819
3.7784993
3.614134
1.9645469
0.69321127
1.4492133
1.7194187
1.4460858
1.2611624
1.1205807
1.0035129
0.90135116
0.8110267
0.72923163
0.65372417
0.58493283
0.37650464
0.30327535
0.10062644
0.44321837
0.62067241
0.56814054
0.29407196
0.27895015
0.17462981
0.13326183
0.13432463
2.383018
3.2327448
3.2695969
3.2710865
3.2531148
3.2267353
2.9396568
2.9625286
3.008796
3.0762602
3.165055
3.2640859
3.3459988
3.3836718
3.4037291
3.560886
3.2022986
3.5096234
3.4955353
3.3426937
1.8675056
1.6721277
2.1513038
1.8359395
1.5842936
1.3912218
1.2365002
1.1055623
0.99037317
0.88740582
0.79474223
0.70910406
0.63086713
0.41745374
0.31986584
0.14111777
0.47455553
0.69688124
0.5363315
0.27649854
0.22472073
0.23696887
0.49948806
0.66219817
0.71301737
0.58137148
0.34017563
0.57272148
2.5064162
3.294971
3.3299347
3.3393706
3.3262138
3.3015751
2.7628807
2.7877249
2.839073
2.9137637
3.0103033
3.1206098
3.2266172
3.3105036
3.3947699
3.042338
3.0770734
2.9343622
3.5568763
3.3526843
1.9245983
1.7563126
2.2071603
1.9291046
1.6971035
1.5059607
1.3458749
1.206786
1.0824323
0.96942267
0.86681167
0.77065019
0.6822179
0.47093497
0.34785385
0.12834207
0.52842991
0.75752202
0.39166043
0.18316301
0.24455229
0.6681856
0.87661193
0.91268944
0.90380113
0.82246415
0.52923519
0.23901021
0.4969847
2.5639113
3.3428441
3.3830117
3.4004594
3.3926362
3.37018
2.5731931
2.5994504
2.6549989
2.7360002
2.8399233
2.9605302
3.0860111
3.2062432
3.3486715
2.9312411
3.221149
3.102903
3.1765375
3.6340901
2.1073453
1.7566048
2.2509776
1.9988102
1.7856406
1.6004395
1.4396099
1.2964297
1.1663298
1.0475685
0.93753093
0.83333651
0.73585974
0.54058304
0.40056552
0.21040002
0.12391433
0.37364634
0.44619944
0.29583297
0.045388829
0.37398747
0.72925452
0.90064038
1.0136058
1.0144815
0.95054344
0.57757417
0.2257676
0.81949756
2.5968185
3.3731351
3.4285096
3.4539188
3.4511691
3.4310211
2.3770703
2.4042879
2.4630736
2.5491694
2.6594305
2.7887142
2.9291013
3.0757589
3.2610469
2.9322388
3.2151838
2.8318643
3.6121266
3.0785129
2.1937697
1.6996424
2.2825854
2.0557736
1.8518631
1.6695097
1.5069331
1.3597689
1.2249669
1.1013586
0.98632502
0.87754135
0.77323771
0.6037038
0.44018804
0.23997165
0.11416851
0.19844679
0.33174612
0.13804362
0.33282509
0.72136999
1.0185358
1.3361419
1.2428773
1.422504
3.1115654
3.3906439
3.4695344
3.5003676
3.5011355
3.482867
2.1807709
2.2085621
2.2695532
2.3592709
2.4742215
2.609865
2.7603807
2.9229225
3.1187747
3.4460877
3.1134194
2.6476045
2.5549827
3.4379334
2.3286493
1.6216858
1.8138877
1.7214831
1.571329
1.4251323
1.290919
1.1675394
1.0531491
0.94691194
0.84891625
0.75806543
0.67131311
0.57350969
0.43966289
0.21994377
0.073708725
0.15036882
0.19907027
0.58145195
1.6752294
1.8046483
3.1728412
3.4273841
3.5102379
3.5404538
3.5419034
3.5244957
1.9899098
2.017928
2.0800638
2.1717704
2.2893692
2.4285831
2.5844059
2.7537935
2.9480401
3.2167907
2.9215225
3.0835832
2.3981772
3.1660306
3.0538158
2.5835573
2.310508
2.146944
2.0166696
1.916725
1.5647083
1.4015065
1.277222
1.159776
1.0421862
0.91966813
0.790958
0.6719647
0.5762441
0.50599252
0.45759318
0.42970151
0.3486584
0.20408099
0.21400251
0.24942472
0.082341993
0.97211969
2.3530719
3.3062584
3.4856081
3.5503727
3.572814
3.5718604
3.5542668
1.8091203
1.8370498
1.8992961
1.9913508
2.1094534
2.2494177
2.4064219
2.5766204
2.7644427
3.0006133
2.7215237
2.8613048
2.2249751
2.3290987
2.5910892
2.8764944
2.626518
2.4282641
2.2433098
2.0283438
1.5271622
1.0816666
0.64086259
0.45094672
0.34073246
0.2431899
0.17111265
0.12647549
0.10991819
0.099450443
0.091181131
0.086718288
0.20245359
0.19254647
0.25906265
0.1554498
1.8890957
3.0810655
3.3963646
3.5355611
3.5795417
3.592704
3.5883375
3.5701959
1.6418791
1.6694235
1.7308338
1.8217157
1.9383317
2.0765201
2.2314293
2.3984686
2.5775784
2.7907634
2.5357676
2.6397891
2.1040523
2.0418346
2.2034338
2.7300565
2.5488886
2.3692288
2.2156846
2.0036213
1.5018927
0.86857232
0.4890826
0.27444103
0.26662049
0.18920926
0.16603214
0.15319428
0.077143327
0.057019969
0.047350791
0.051895628
0.13505058
0.15684215
0.15919333
0.071336018
0.74073071
2.2402021
3.1621056
3.4243386
3.545093
3.5847202
3.594592
3.5886806
3.5705953
1.4904342
1.5173265
1.5770998
1.6655232
1.7789352
1.9132128
2.0634253
2.2242917
2.3921416
2.5739834
2.7779236
2.419858
2.3055566
2.1621013
1.662261
1.7237828
2.1421044
2.0534728
1.6926757
1.6177444
1.3883178
0.67006252
0.35511897
0.2478968
0.26888784
0.22170735
0.22190104
0.19386034
0.15531976
0.16149656
0.09706934
0.12060965
0.15156466
0.19642075
0.10176294
0.27796876
1.6310983
2.8171519
3.1956809
3.4118038
3.5206951
3.5636988
3.576423
3.5718942
3.5549419
1.3559311
1.3819416
1.4394469
1.5244056
1.6332446
1.761922
1.9054043
2.0577074
2.2119894
2.3653328
2.5130528
2.147376
1.9079409
1.624896
1.5620339
1.5655219
1.5416959
1.5331842
1.5441716
1.4713535
1.3530783
1.1731374
0.96230121
0.79256148
0.66286697
0.56301829
0.50218512
0.46467816
0.45545169
0.44176535
0.36931211
0.25931987
0.23716731
0.27857667
0.12149139
1.1306742
2.4231568
2.8879973
3.19134
3.3729189
3.4732806
3.5211037
3.5395363
3.5387036
3.5239172
1.2384307
1.263374
1.3181694
1.3989593
1.5022778
1.6241559
1.7595378
1.9019615
2.0426377
2.1724141
2.2803885
1.8972412
1.3008403
0.53253269
0.48967593
0.46710522
0.44831318
0.44364745
0.47020738
0.50216659
0.52927735
0.54605343
0.51167497
0.42399795
0.31060131
0.21131942
0.17925636
0.18963238
0.22460212
0.24835422
0.33110253
0.32825618
0.31205678
0.33982414
0.32706228
0.32887162
1.5534481
2.5521332
2.9152919
3.1605572
3.316107
3.4100246
3.462038
3.4866708
3.4907876
3.478943
1.1371945
1.1609526
1.2127948
1.2890098
1.3862307
1.500599
1.6271597
1.7594085
1.8881449
2.0010317
2.083652
1.7533172
1.2579208
0.098937658
0.15556769
0.24001098
0.35224269
0.39622538
0.29293385
0.095261182
1.1285528
2.209051
2.6237733
2.9099187
3.1114499
3.2470598
3.3357419
3.390737
3.4208923
3.4302073
3.4217724
1.0509083
1.0734601
1.1223022
1.193808
1.2847032
1.3912731
1.508772
1.6309735
1.7491486
1.8507027
1.9169506
1.6351949
1.1546974
0.05118863
0.17490582
0.1734562
0.066250218
0.27832842
0.27979457
0.20967878
0.099131891
0.40655575
1.4988252
2.3225957
2.6491454
2.8804647
3.0495007
3.1696656
3.2537873
3.3105499
3.3450629
3.3590187
3.3539558
0.97792692
0.99936785
1.0453326
1.112218
1.1968429
1.2956613
1.4042051
1.5166914
1.6252413
1.7184128
1.7778601
1.5448212
1.2148372
0.36685868
0.16398861
0.20484733
0.1175469
0.044369791
0.1194994
0.1052633
0.07403026
0.057096997
1.1210686
2.0199794
2.3834448
2.6422852
2.8336323
2.9784133
3.0864688
3.1665025
3.2240276
3.2616176
3.2791308
3.276803
0.91651612
0.93705354
0.98037809
1.0428881
1.1215049
1.2128686
1.3128305
1.4161419
1.5159147
1.6023006
1.6571565
1.5973526
1.2691074
0.66815071
0.088225198
0.20391524
0.18778067
0.04079796
0.046768848
0.078639365
0.24817173
0.39797979
0.20446964
0.52827689
1.4489822
2.1143102
2.4019645
2.6126167
2.7743618
2.9007974
2.9992457
3.0755893
3.1330937
3.1725499
3.1924223
3.1922193
0.86515784
0.88498684
0.92593263
0.98439145
1.0573878
1.1417499
1.2336648
1.3284476
1.4201878
1.5007079
1.5552378
1.533384
1.2948496
0.96292459
0.061920077
0.1877551
0.21048732
0.11700568
0.16763188
0.52957207
0.63113763
0.43333801
0.17451731
0.34132406
1.1635433
1.8555012
2.1624353
2.3909082
2.5665275
2.7061002
2.818569
2.9093624
2.9823601
3.0392291
3.079496
3.1006934
3.1021441
0.82265149
0.84182226
0.88059605
0.93533547
1.0031461
1.081028
1.1654897
1.2523928
1.3367427
1.4119787
1.46729
1.471632
1.3004077
1.0043011
0.16816454
0.21395344
0.17484947
0.044698231
0.31642734
0.69731262
0.66925831
0.61467949
0.51533554
1.0216763
1.6212648
1.9302371
2.1709882
2.3584229
2.5086108
2.6315327
2.7333265
2.8179675
2.887886
2.9436203
2.9838307
3.0055735
3.0083252
0.78788853
0.80637623
0.84311716
0.89443126
0.95748075
1.0294079
1.1070078
1.1866363
1.2641178
1.3343389
1.3899256
1.4122208
1.3030378
1.1507298
0.71545276
0.098198767
0.19826775
0.20109194
0.12581055
0.49945118
0.68072579
0.9542232
1.4195305
1.7085657
1.9534567
2.1510447
2.3107157
2.4425031
2.5529298
2.6464967
2.7260829
2.7930876
2.8472655
2.8867441
2.9084887
2.9122713
0.75974598
0.77758372
0.81239495
0.86052685
0.91919573
0.98565946
1.0569546
1.1298554
1.2008626
1.2660093
1.3202638
1.3516957
1.3129723
1.2391132
1.0612526
0.36775385
0.17206112
0.2047107
0.16582846
0.98084489
1.49118
1.7381426
1.9438286
2.1131244
2.2533454
2.3714731
2.4723345
2.5593751
2.6346365
2.6987839
2.7510439
2.7892897
2.8106672
2.8152603
0.73722454
0.75450752
0.78747231
0.83261477
0.88722395
0.94866028
1.0141614
1.0808389
1.1457063
1.2055904
1.2567743
1.2914037
1.2817228
1.2173663
1.1579753
0.96646483
0.56551054
0.14038711
0.18987502
0.18980584
0.14694547
0.41361273
1.0772078
1.5257947
1.7397619
1.9170524
2.0655
2.1908663
2.298275
2.3914807
2.4730854
2.5444526
2.60571
2.6557516
2.6924089
2.7131648
2.7183732
0.7196248
0.73637137
0.76754056
0.80983357
0.86063631
0.9174124
0.97757398
1.0385052
1.0976017
1.1522232
1.1994061
1.2337702
1.2387836
1.2056427
1.1222069
1.0005781
0.91083807
0.69765204
0.27272499
0.070122857
0.16830824
0.19005342
0.19091513
0.75897685
1.3137584
1.542734
1.7264544
1.8811333
2.0129514
2.1262664
2.2248816
2.311677
2.3885257
2.4562308
2.5145224
2.5621147
2.596944
2.6168918
2.6225315
0.70643272
0.72256357
0.75194447
0.79147139
0.83864763
0.89105124
0.94625788
1.001884
1.0556273
1.1052386
1.1482654
1.1808568
1.1928728
1.177087
1.1277298
1.0504028
0.95349963
0.87828589
0.72255417
0.43378576
0.1508519
0.1830079
0.18131907
0.11507682
0.32722255
0.91635529
1.3471524
1.5433104
1.7029935
1.8396475
1.957984
2.0613485
2.1525825
2.2338368
2.3063742
2.3705469
2.425804
2.4707952
2.5036478
2.5226433
2.5285339
0.69721509
0.71262256
0.74018241
0.7769693
0.82062352
0.8688554
0.91940476
0.9700992
1.0188917
1.0638418
1.1028912
1.1331633
1.1482321
1.1424653
1.1125621
1.0611494
0.99266939
0.90197067
0.78270574
0.68805193
0.46403363
0.16073123
0.11359284
0.25479439
0.19549966
0.19770704
0.14185583
0.65695088
1.1485644
1.3655008
1.5326461
1.6728977
1.7949592
1.902252
1.9973117
2.0822503
2.1586054
2.2271481
2.2878831
2.3400768
2.3823944
2.4131925
2.4311209
2.4370872
0.69164536
0.70623182
0.73190793
0.76592642
0.80608831
0.85025838
0.89634837
0.94238635
0.98655047
1.0271546
1.0624631
1.0902574
1.1063133
1.1064118
1.0882697
1.052865
1.0022368
0.93349746
0.84423592
0.74027634
0.63061917
0.4469522
0.31221182
0.20892279
0.31479187
0.22585227
0.18435238
0.046514603
0.4565053
0.96310415
1.1907694
1.3693426
1.5140483
1.6387101
1.7488615
1.8470027
1.9350418
2.0145171
2.0864618
2.1512589
2.2086555
2.2578113
2.2974564
2.3261791
2.3429517
2.3488277
0.6895417
0.70322843
0.72693644
0.75810807
0.79473419
0.83486064
0.87658318
0.91812553
0.95787061
0.99434794
1.0260921
1.0513546
1.0672446
1.0706308
1.0596991
1.0344377
0.99547956
0.94084596
0.86936611
0.78480162
0.69227615
0.59523185
0.45968452
0.43474547
0.39623388
0.37286118
0.27232052
0.22730962
0.12343346
0.14774483
0.6494902
1.0261189
1.2120224
1.3628301
1.4902169
1.6022984
1.70267
1.7931631
1.8751882
1.9498522
2.017777
2.0790488
2.1332313
2.1794326
2.21647
2.243144
2.2586998
2.2643353
0.6908912
0.70361671
0.72525579
0.75345606
0.78643211
0.82244161
0.85978062
0.89686764
0.93227567
0.96472094
0.9929635
1.0156
1.0305638
1.0354995
1.0288353
1.0099585
0.97860836
0.93321458
0.87304033
0.80149027
0.72392171
0.64458458
0.57734473
0.51647906
0.47964432
0.46064766
0.46055175
0.44305581
0.28361973
0.20664054
0.068926391
0.48191236
0.88078588
1.0657725
1.2198634
1.3498457
1.4634418
1.5651811
1.6573987
1.7414232
1.8182432
1.8886183
1.9528541
2.0108154
2.0619415
2.1053239
2.1398712
2.1645637
2.1788732
2.1841404
0.69586315
0.7075806
0.72703715
0.75209954
0.78124313
0.81297193
0.84580286
0.87835262
0.90937295
0.9377442
0.96241044
0.9822207
0.99562186
1.0007833
0.99626565
0.98107849
0.95441047
0.91503525
0.86289945
0.80247142
0.73727645
0.67299616
0.61833873
0.57586637
0.54991712
0.5366908
0.52950137
0.5119698
0.49208574
0.3131861
0.25802191
0.18808806
0.067155295
0.22909404
0.66011592
0.93648468
1.0884866
1.2188772
1.3330676
1.4354624
1.5285714
1.6139008
1.6923552
1.7646082
1.8311208
1.8919605
1.9468309
1.9950897
2.0358318
2.0680475
2.0908613
2.103928
2.1087266
0.70480999
0.71548787
0.73264069
0.7543622
0.77942718
0.80662366
0.83471455
0.86252324
0.88897353
0.91309128
0.93396639
0.95062745
0.96183767
0.96610265
0.96205603
0.94852098
0.92454926
0.88970939
0.8450678
0.79355777
0.73962809
0.68915064
0.64847616
0.620426
0.60491321
0.59717633
0.58923958
0.57037226
0.5404053
0.51417083
0.47793911
0.29887221
0.24293764
0.14158567
0.54586757
0.82828712
0.97397048
1.1002191
1.2127356
1.3144929
1.4076223
1.4934346
1.57285
1.6464434
1.7146341
1.7776401
1.8353514
1.8873563
1.9329614
1.9712728
2.0013457
2.022413
2.0342726
2.0385317
0.71825136
0.72787855
0.74260713
0.7607577
0.78144262
0.80377365
0.82678948
0.84953517
0.8711062
0.89066073
0.907403
0.92048429
0.92885789
0.93123726
0.92635195
0.91308904
0.89126607
0.86033219
0.82149319
0.77805654
0.73477537
0.69708103
0.6696149
0.653901
0.64785976
0.64579031
0.63930922
0.61977472
0.58838573
0.55715925
0.52174763
0.48779913
0.45421376
0.29730216
0.26182973
0.13253577
0.42523026
0.71748347
0.88007591
0.99817957
1.1052123
1.2040188
1.2957135
1.3810372
1.4605767
1.5348347
1.6041246
1.6686549
1.7284558
1.7832863
1.8326539
1.8758336
1.9119427
1.9400818
1.9595574
1.9702734
1.9739505
0.73682855
0.74542349
0.75762133
0.77196027
0.78792451
0.80498931
0.82250329
0.83975576
0.85602195
0.87058724
0.88274979
0.89174584
0.89664659
0.89633845
0.88992107
0.87665989
0.8558623
0.82774275
0.79406281
0.75834384
0.72521879
0.69941898
0.68422658
0.6798554
0.68294595
0.68680333
0.6823511
0.66258413
0.63331663
0.60222332
0.56583082
0.5287559
0.5005006
0.48915639
0.46958652
0.36887717
0.34069341
0.5514644
0.7022559
0.81171082
0.91661981
1.0141121
1.1066347
1.1946544
1.2780188
1.3566606
1.4307209
1.500404
1.5658219
1.6270128
1.6838648
1.7360424
1.7829977
1.8239852
1.8581288
1.8845532
1.902606
1.9122627
1.9153398
0.76121726
0.76883851
0.77843194
0.78873395
0.79962571
0.81098325
0.82250113
0.83374289
0.84418274
0.85323984
0.86030121
0.864675
0.86553926
0.86219549
0.85382189
0.83953296
0.81914024
0.79347644
0.7647337
0.73649618
0.71311255
0.69859107
0.69512768
0.70177479
0.71396292
0.72375464
0.7214683
0.70303996
0.67768214
0.64715366
0.6109305
0.57694645
0.55758867
0.56564515
0.57692263
0.57573214
0.66851041
0.7330432
0.76787025
0.85740966
0.9419459
1.0251938
1.1068371
1.1862133
1.2625458
1.3353686
1.4045545
1.4701021
1.5319742
1.5900774
1.6441954
1.6939259
1.7386835
1.7777081
1.8101218
1.8350516
1.8518552
1.8605474
1.8630234
0.791987
0.79873731
0.8057082
0.81180198
0.81730241
0.8225171
0.82752178
0.83218912
0.83622294
0.83919607
0.84059794
0.83981858
0.83630737
0.82954519
0.81848705
0.80271473
0.78254466
0.75929611
0.7354505
0.7145789
0.7007152
0.69722103
0.70532665
0.7229151
0.74405166
0.75952521
0.7600619
0.74564593
0.72452584
0.69515081
0.66173978
0.63676702
0.63182227
0.64999929
0.67160831
0.68086494
0.69151052
0.74648496
0.81773701
0.88910159
0.9612625
1.0345863
1.1078813
1.1801317
1.2503769
1.3180121
1.3827626
1.4444907
1.5030526
1.558258
1.6098162
1.6572798
1.7000379
1.7373175
1.7682281
1.791876
1.8075987
1.8154197
1.8173023
0.82941547
0.83542752
0.83982929
0.8416519
0.84154041
0.84025122
0.83827388
0.83582614
0.8328796
0.82919294
0.82438766
0.81796487
0.80979131
0.79902992
0.78495501
0.76758239
0.74768418
0.72695566
0.70811848
0.69472106
0.69045684
0.69801476
0.7176284
0.7458569
0.77534619
0.7962759
0.8014267
0.7932802
0.77553891
0.74786694
0.71831611
0.69980191
0.702133
0.72253931
0.74569437
0.75422858
0.76330373
0.79991434
0.85507648
0.91574002
0.97947853
1.0452401
1.1116962
1.1777977
1.2425947
1.3054694
1.3660754
1.4241887
1.4795924
1.5320293
1.5811584
1.6265034
1.6674362
1.7031693
1.7327864
1.755349
1.770142
1.7771706
1.7784649
0.87327581
0.87866349
0.88058693
0.87825076
0.8725094
0.86453183
0.85525428
0.84527634
0.83487698
0.82404323
0.81256331
0.80006871
0.78673519
0.77168611
0.75450487
0.73558285
0.71608218
0.69806704
0.68451257
0.67891315
0.68449555
0.70311893
0.73383328
0.77175576
0.80855431
0.83539718
0.84770614
0.8456698
0.83022604
0.80434751
0.77754237
0.76308374
0.76845309
0.78699342
0.8074834
0.8129863
0.81798985
0.84433739
0.88957464
0.94272692
0.9998928
1.0593895
1.1199112
1.1804778
1.2402362
1.2986136
1.35524
1.4098444
1.462165
1.5119037
1.5586886
1.6020276
1.6412806
1.6756409
1.7041508
1.7258009
1.7397889
1.7460771
1.7467742
0.92269011
0.9274974
0.92691711
0.92060429
0.90961458
0.89512683
0.87854339
0.86089303
0.84280813
0.82455029
0.80610604
0.78725708
0.76821046
0.7486835
0.72837174
0.70794247
0.68889856
0.67369529
0.66559295
0.66801849
0.68352853
0.71285546
0.75368228
0.79985583
0.84318257
0.87720742
0.8977288
0.89998775
0.88598026
0.86158629
0.83663834
0.82443028
0.83059374
0.84701651
0.86301338
0.86632738
0.8683631
0.88825887
0.92623705
0.97327435
1.0248522
1.0788958
1.1340923
1.1895433
1.2445257
1.2985436
1.3512456
1.40235
1.4515791
1.4986173
1.5430809
1.5844726
1.622143
1.6552593
1.6828044
1.7036728
1.7169337
1.7224905
1.7225627
0.97600061
0.98024515
0.97709804
0.96667177
0.95053441
0.93017242
0.9069837
0.88207349
0.8565043
0.83085898
0.80536288