/*--------------------------------*- C++ -*----------------------------------*\
  =========                 |
  \\      /  F ield         | OpenFOAM: The Open Source CFD Toolbox
   \\    /   O peration     | Website:  https://openfoam.org
    \\  /    A nd           | Version:  8
     \\/     M anipulation  |
\*---------------------------------------------------------------------------*/
FoamFile
{
    version     2.0;
    format      ascii;
    class       volScalarField;
    location    "10800/air";
    object      nut;
}
// * * * * * * * * * * * * * * * * * * * * * * * * * * * * * * * * * * * * * //

dimensions      [0 2 -1 0 0 0 0];

internalField   nonuniform List<scalar> 
167754
(
0.093222502
0.093137513
0.092971978
0.092739182
0.092498939
0.092293087
0.092132891
0.092025997
0.091966158
0.09193754
0.09191786
0.091894714
0.091859878
0.091811727
0.091755948
0.091713726
0.09172365
0.091825058
0.092002693
0.092159092
0.092307082
0.092400709
0.092499668
0.09272413
0.093176494
0.093632849
0.094055234
0.094384991
0.094591518
0.094673245
0.09463556
0.094491673
0.09426374
0.093972374
0.093640945
0.09328625
0.09292492
0.09257056
0.092238656
0.091943992
0.091701808
0.091523737
0.091414255
0.091366945
0.091401465
0.091503845
0.091630594
0.091778888
0.091992767
0.092363923
0.093148406
0.094447241
0.09631303
0.098659377
0.10132841
0.10371534
0.10546496
0.10620207
0.10576218
0.12087101
0.1206287
0.11908012
0.1169026
0.11473881
0.11302394
0.11189995
0.11127577
0.11100146
0.11092037
0.1108971
0.11085581
0.1107685
0.11063696
0.1104941
0.11041621
0.11050933
0.11080857
0.11127685
0.11192225
0.112783
0.11307557
0.11305091
0.11391405
0.11551173
0.11713514
0.11844451
0.11941748
0.11995742
0.12009914
0.11989905
0.1194126
0.11870354
0.11785052
0.11691498
0.11594348
0.11496329
0.11399797
0.11306788
0.11220022
0.11142914
0.11079284
0.11031534
0.10999539
0.10983601
0.10988407
0.11018246
0.11081303
0.11228068
0.11568548
0.12300259
0.13566834
0.15363078
0.17486893
0.19601298
0.21417344
0.22660444
0.23160519
0.22832429
0.19550635
0.19401236
0.18495118
0.17132935
0.15696574
0.1451293
0.13729405
0.1330886
0.1312974
0.13076851
0.13071891
0.13074775
0.13071861
0.13061886
0.13048113
0.13039772
0.13061637
0.13149848
0.13324106
0.13531588
0.13777726
0.13802331
0.13728962
0.13887733
0.1427676
0.14610245
0.14861689
0.15032088
0.15089108
0.15052228
0.14949866
0.14808114
0.14638101
0.14457029
0.14276684
0.14101875
0.13933102
0.13770116
0.13612531
0.13461699
0.13322338
0.13201171
0.13103303
0.13029029
0.12977942
0.12966764
0.13049891
0.13362533
0.14304105
0.16558088
0.20649557
0.26368447
0.33040531
0.3967148
0.45484247
0.49980404
0.52872234
0.53998208
0.53255625
0.3946867
0.39111448
0.36671034
0.32661163
0.27820923
0.23086765
0.19328604
0.16969318
0.15826636
0.15415823
0.15318853
0.15327027
0.15364741
0.15409699
0.15455994
0.15521776
0.15694378
0.16083758
0.16642304
0.17366638
0.10041906
0.10470368
0.1849542
0.18930493
0.19683327
0.20453398
0.20793713
0.20890242
0.20676793
0.20169225
0.19571762
0.19003447
0.1844457
0.17933242
0.17493259
0.17120132
0.16800724
0.16521484
0.16268829
0.16035095
0.15822327
0.15638976
0.15490676
0.15375053
0.15293696
0.15311566
0.15700953
0.17303498
0.2171687
0.29935388
0.41073267
0.53273686
0.65103697
0.75659214
0.84210205
0.90497664
0.94415258
0.95909106
0.9490623
0.71653781
0.71118316
0.67407751
0.60974033
0.52457052
0.42864055
0.33621081
0.26242675
0.21543001
0.19309549
0.18555451
0.18461608
0.18650676
0.18990442
0.19451491
0.20086477
0.2107141
0.22656921
0.12441915
0.13393858
0.15880234
0.17195143
0.15954229
0.35594155
0.16138504
0.38964414
0.38703883
0.38244842
0.36945039
0.34535488
0.32035063
0.29753246
0.27547981
0.25581994
0.23935432
0.22597019
0.21529739
0.20688036
0.20013527
0.19463415
0.19020278
0.1868269
0.1844371
0.1828505
0.18218661
0.18493743
0.20249277
0.26060746
0.37798631
0.53980892
0.71525835
0.88141249
1.028918
1.152718
1.2493398
1.3187207
1.3612226
1.3769939
1.3655847
1.0799592
1.0738193
1.0309319
0.95472253
0.84919289
0.72116863
0.58254976
0.45238694
0.34874893
0.28402491
0.25360152
0.24579334
0.25044827
0.2629265
0.28097951
0.30408477
0.33178764
0.17782424
0.21408223
0.219037
0.13064869
0.074125781
0.29423482
0.28071291
0.31009383
0.31148339
0.30363088
0.2984925
0.73626009
0.66922631
0.61117203
0.55227448
0.49489463
0.44263145
0.3970752
0.35747383
0.32398907
0.29650573
0.27414767
0.25629246
0.24262665
0.23297967
0.22689447
0.22366544
0.22386273
0.2362234
0.29054837
0.41992986
0.61474011
0.83360598
1.0430747
1.2277679
1.3859107
1.5137468
1.6116956
1.6811737
1.7232552
1.7383175
1.7260144
1.4224101
1.4160692
1.371854
1.2925631
1.1806808
1.0402608
0.87932431
0.71534809
0.571572
0.46625665
0.40495885
0.38102393
0.38508335
0.41025963
0.44961588
0.48957216
0.2441473
0.27723008
0.17174045
0.071646617
0.2325632
0.51620565
0.47928853
0.2140721
0.24465546
0.54169094
0.53546117
0.5040478
0.45759503
0.42034682
0.94763351
0.84248066
0.74658083
0.66601482
0.59367685
0.52825474
0.47076259
0.41969221
0.37536368
0.33947573
0.31352756
0.29710211
0.28870963
0.29089219
0.32516313
0.43453005
0.6314859
0.87592151
1.1210948
1.3416618
1.5309777
1.6884224
1.8134743
1.9083764
1.9752617
2.0154375
2.0292358
2.016261
1.7187931
1.7123597
1.6686612
1.5902788
1.479043
1.337516
1.1716298
0.99818394
0.84723809
0.31844956
0.66083206
0.62074372
0.61498724
0.6476274
0.70457734
0.33349493
0.33826791
0.14714459
0.70415714
0.73260462
0.29464352
0.27841006
0.31296935
0.66948653
0.63606385
0.58624411
0.52769547
1.0955737
0.98733767
0.88766894
0.79432765
0.71183554
0.63416344
0.55853968
0.49136225
0.44060934
0.40824231
0.3916667
0.39761433
0.46100351
0.61889695
0.85598883
1.1204083
1.3712476
1.5905255
1.7766912
1.9287526
2.0483492
2.1386268
2.2020441
2.2399428
2.2524513
2.2390062
1.9649043
1.9582718
1.9155721
1.8394536
1.7317164
1.594728
1.4341323
1.272445
0.49928776
0.43670829
0.42357995
0.41616858
0.9130524
0.93820021
1.0084566
0.46502983
0.2308123
0.89457654
0.88999572
0.11554889
0.26538992
0.32691502
0.67591119
0.62955567
0.5785183
0.52918262
1.0548053
0.96281157
0.8736915
0.76803063
0.6710683
0.59772673
0.55319314
0.53183741
0.54208257
0.62885166
0.8132457
1.0635655
1.3288769
1.5744604
1.7864354
1.96486
2.1098717
2.2232482
2.308533
2.3684389
2.4042485
2.4157525
2.4021149
2.1649074
2.1578202
2.1159862
2.0423155
1.9388919
1.8090185
1.6642203
1.5279354
0.59932923
0.27164075
0.2238913
0.56056787
0.55324229
0.55731521
0.58570126
0.57080573
0.19362764
0.34229877
1.0642996
0.44590542
0.26878506
0.31857119
0.62276417
0.58788735
0.54998588
0.51486699
0.95254098
0.82712317
0.74319299
0.70194465
0.68525006
0.70204941
0.80211458
0.994146
1.239533
1.4955618
1.7309993
1.9329759
2.1010112
2.2381694
2.3451754
2.4257022
2.4825824
2.5169406
2.5280252
2.514603
2.3254979
2.3175383
2.2759656
2.2039661
2.1044552
1.9867126
1.8776755
0.80534628
0.66130518
0.14673521
0.29626497
0.66558974
0.68344748
0.6240482
1.1114846
1.1912159
0.17985102
0.24799386
0.29602635
0.57394669
0.52967294
0.48250865
0.82490559
0.81872552
0.44478204
0.85079342
0.95778028
1.1504638
1.3842325
1.6250009
1.8472169
2.0366377
2.1952477
2.3224386
2.4210584
2.4969424
2.5518678
2.586128
2.5978544
2.5852663
2.4536727
2.4442146
2.4018002
2.330058
2.2328607
2.1268745
0.93452848
0.82853013
0.29798432
0.16992417
0.35010785
0.33681304
1.307113
0.59442282
0.23004905
0.29931752
0.47182064
0.48701985
0.5099593
0.49087752
0.52323489
0.59755829
1.5035138
1.7261772
1.9357911
2.1093659
2.2554473
2.3724604
2.4598908
2.5276376
2.5821114
2.6188843
2.6331704
2.6223596
2.5560595
2.5442039
2.4991736
2.4250046
2.3326123
2.2432525
0.94214717
0.78765788
0.29782397
0.41599661
1.4117673
0.3924559
0.34582689
0.50820908
0.19587511
0.21490209
0.24496137
0.57768449
0.73323873
0.84478016
0.92856756
2.1592579
2.2936328
2.4004709
2.4701784
2.5261984
2.5780592
2.6214334
2.6414119
2.6337149
2.6390274
2.6237091
2.5743336
2.4973517
2.4167751
1.0903779
0.93622579
0.31621925
0.26381818
1.3857491
0.68167092
0.74241873
0.36109528
0.087450751
0.2639466
0.74588977
0.86217301
0.99924109
1.0738765
1.1167791
2.4482654
2.4998252
2.5501202
2.6010681
2.6304667
2.6272106
2.7087951
2.6887372
2.6316932
2.5504661
2.4713098
1.0479589
0.44963843
1.1214676
1.4996465
0.5007346
0.10603715
0.79248768
0.41177398
0.23086926
0.33947224
0.9040505
1.0012255
1.105522
1.14607
2.5187732
2.5737743
2.6104247
2.6112909
2.772157
2.7473729
2.6829032
2.5980674
1.1805831
0.99736332
0.30629864
0.47187362
1.559284
0.71704234
0.31206347
0.73079333
0.16137909
0.22400691
0.39102412
0.90996759
1.1645238
2.5663451
2.5949052
2.5953033
2.8355559
2.805723
2.7369371
2.6439114
1.1018074
0.46070525
1.5452027
1.6412776
0.58189627
0.63670293
0.40589715
0.30450606
1.1085739
2.5935641
2.5934642
2.5847656
2.9059944
2.8767276
2.8242002
1.2842852
1.0672387
0.2925196
0.54446899
1.6354386
1.539324
0.11461302
0.55155389
0.2779096
0.38047365
1.1981502
2.6258368
2.5974749
2.5779577
2.9846535
2.963102
2.9381475
1.2926004
1.1897514
0.22696095
1.5531781
1.6372524
0.60518905
0.20566204
0.47180212
0.10592695
0.41968859
1.2292264
2.6405543
2.5994004
2.5709746
3.0659993
3.052412
3.0414036
1.3563829
1.3057812
0.3524584
1.376185
1.6111649
1.5526639
0.21763914
0.44204212
0.29443026
1.0137685
2.6485526
2.6347171
2.5973813
2.5632567
3.1450231
3.1360143
3.1199412
3.1023539
1.3761494
0.52851406
0.37143494
1.5510901
1.6018575
0.60957613
0.082546437
0.45043974
0.27315935
1.0565038
2.6292213
2.6203814
2.5894243
2.5551802
3.2172566
3.2059435
3.1836041
3.157638
1.4129958
1.1459972
1.4160615
1.6248877
1.6234589
0.35730788
0.21169455
0.48670871
0.27442932
1.1060577
2.6174971
2.608076
2.580955
2.548554
3.2802326
3.2639857
3.2372565
3.2041654
1.4339269
1.2796107
0.17536279
0.46257783
1.5709151
1.6638807
1.7078492
1.4361079
1.3653182
1.3534369
1.3180923
1.2430318
1.1346278
1.0442991
0.95932407
0.86750524
0.74443058
0.57605173
0.40235423
0.33943334
0.34870386
0.36348885
0.39344643
0.43425082
0.4896988
0.53593336
0.51680196
0.45014888
0.48847178
0.55235228
0.2658231
1.1416093
2.6145036
2.6009218
2.5755111
2.5449261
3.3316515
3.3114616
3.283042
3.2404613
3.1707548
1.3804988
0.42581605
1.4460817
1.6312965
1.6896414
0.83271031
1.6152544
0.67637877
0.66811517
0.6388587
0.52668294
0.424062
0.35523919
0.30132925
0.25209679
0.2262183
0.20970811
0.16517926
0.1529213
0.16836083
0.20769682
0.24044778
0.24634077
0.2606154
0.33559533
0.39960909
0.37218144
0.54992884
0.60001271
0.26842981
0.24605093
1.1829782
2.6201297
2.5993065
2.5743794
2.5450996
3.3690845
3.3456335
3.3144153
3.2722431
3.2189495
1.4366617
0.57547375
0.51610624
1.6026712
1.6874073
1.7271428
0.84124856
0.71096169
1.4806456
1.3046078
0.50407643
0.16902708
0.28745134
0.13166812
0.15473364
0.16075227
0.23217332
0.75094396
0.7284326
0.59823497
0.61035667
0.264478
0.33135758
1.2126735
2.6287834
2.6018954
2.5775938
2.5492848
3.3903705
3.3642883
3.3316217
3.2937022
3.2557565
1.474295
1.2456941
0.23653529
1.5154687
1.7610478
1.8221882
1.7698554
0.48210936
0.3785089
0.52410616
0.26263694
0.18703116
0.13334051
0.21938802
0.14136587
0.080075336
0.053799956
0.073292007
0.057259279
0.079697096
0.092106661
0.10954993
0.35233511
0.44286229
0.088457363
0.17753588
0.60151143
0.65042358
0.685127
1.311266
0.60335445
0.25697164
0.43543092
1.2402105
2.6364278
2.6084054
2.5849855
2.5572917
3.3926187
3.3653899
3.3341951
3.3042223
3.2829907
1.492212
1.377072
0.30151099
1.3361804
1.7228563
0.94854518
1.014732
0.95538198
0.81485296
1.2716669
0.31913689
0.30592295
0.2563665
0.16206996
0.081675249
0.08351357
0.10420326
0.13483914
0.16983198
0.19668582
0.2343242
0.51328681
0.11607806
0.18885824
0.62734312
1.3461169
1.3293037
0.6000385
0.57703602
0.20907394
0.48407962
1.2567031
2.6482619
2.6200787
2.5958443
2.568548
3.3733586
3.3470637
3.3204135
3.300949
3.2933923
3.2994451
1.5065444
0.62110417
0.36741027
1.5684837
2.003182
1.1029045
1.1430956
0.90980622
0.70235694
0.58381072
0.42937879
0.40382544
0.40470005
0.81590068
0.78077849
0.77978893
0.79261945
0.80906497
0.79748695
0.75484345
0.69734772
0.64292538
0.61247049
0.5684339
0.20126517
0.66730741
0.64401412
0.62534691
0.56336358
0.54713137
0.13647613
1.082768
2.6538098
2.6590481
2.6355426
2.6091344
2.5821447
3.3321335
3.3074073
3.2854556
3.2729235
3.2772064
3.2954358
3.3172174
1.5121508
1.2280337
0.40354139
1.29192
1.6678135
0.94482294
1.0852743
1.0588738
1.2322903
1.143196
2.4235531
2.3335705
2.269628
2.1990113
2.1178819
2.02421
1.9114194
1.7873203
1.6688043
0.67654379
0.58875426
0.1669292
0.73047803
0.87920839
0.66464092
0.53550585
0.51021815
0.12811565
1.1449719
2.6644513
2.6662375
2.6478318
2.6224603
2.5965038
3.2692071
3.2458035
3.2276375
3.218995
3.2258932
3.2449482
3.2513776
3.1952265
1.4520429
1.2537437
3.391069
3.8194658
1.9070086
2.0062433
0.92340733
0.37748681
1.2870456
2.7472645
2.5359182
2.3996061
2.3002744
2.2112879
2.1203425
2.0223689
1.9150627
1.8001084
1.6843641
0.68721762
0.58498227
0.15417311
0.88082275
0.51418721
0.88341703
0.51902616
0.44403946
0.38891595
0.18673229
0.10254158
1.1888112
2.6713263
2.6705068
2.6565148
2.6343135
2.6100827
3.1857908
3.1636355
3.1489533
3.1439939
3.1521332
3.1704579
3.1829714
3.1586967
3.1112778
3.2025305
1.6383433
1.7628447
1.7705297
1.8417549
0.85728929
1.3369087
2.9713998
2.7503834
2.5580182
2.4124451
2.2948206
2.1885669
2.0843617
1.9783222
1.8717372
1.7647428
1.6658936
0.70510733
0.6066954
0.16592102
0.43617942
0.555628
0.43891747
0.25107129
0.18383079
0.22834128
0.61101514
0.70520449
0.73041911
0.30234694
0.13013269
0.23387679
1.2278156
2.6721857
2.6701699
2.6612279
2.6436199
2.6218826
3.0840089
3.0634286
3.0526703
3.0525189
3.06439
3.0854021
3.1056685
3.1093375
3.1173566
1.5519267
1.5696398
0.87549068
1.7851972
1.7966213
0.83515032
1.3408994
2.9226529
2.7115937
2.5323032
2.3846669
2.2586129
2.1435026
2.0324032
1.9224725
1.8150036
1.7086588
1.6124818
0.71211728
0.6778951
0.17754903
0.49533819
1.1322428
0.77423003
0.23408975
0.1077266
0.32427949
0.38871504
0.9132641
0.95970661
0.97175091
0.33424805
0.15112032
0.2520241
1.2395499
2.6564017
2.6616994
2.6611404
2.6496998
2.6313769
2.966619
2.9481561
2.9420059
2.9478428
2.9656762
2.9929277
3.0226583
3.0488885
3.0946998
1.4765767
1.5969324
0.94714601
0.93242562
1.9423075
0.84208209
1.310245
2.8485851
2.6460625
2.4751062
2.3285102
2.2004212
2.0825773
1.9692259
1.8592499
1.7520744
1.6451302
1.5433379
0.69528615
0.58303145
0.19556942
0.14906087
0.35394434
0.40479377
0.61764709
0.091312603
0.11253046
0.39572961
0.45598724
1.2031738
1.2252568
1.0371712
0.36403834
0.12640047
0.37405788
1.2215322
2.620542
2.6461663
2.6567876
2.6528187
2.6386354
2.8368693
2.8211133
2.8201914
2.8329108
2.8581995
2.8938555
2.9348662
2.9817888
3.0593601
1.4756175
1.5980304
0.90762558
1.9167251
0.95167397
0.83356711
1.2519528
2.7618046
2.5632646
2.3919989
2.2442096
2.1135838
1.9926792
1.8765248
1.7652364
1.6575335
1.553071
1.453691
0.68471094
0.55838084
0.21604555
0.14482736
0.21341483
0.59084616
0.20712481
0.12713262
0.39131255
0.46691483
1.091914
0.84648764
0.78667945
2.3920127
2.5696853
2.6300683
2.6511854
2.6544762
2.6444301
2.6983597
2.6858399
2.6905609
2.7106338
2.7441535
2.7890626
2.8420012
2.9053334
2.994202
3.1962068
1.5842739
0.83067514
0.87670351
1.8318223
0.80198519
1.1561128
1.2421268
1.1665973
1.0808398
1.0068102
0.94259901
0.88480902
0.83097702
0.78004102
0.73271566
0.68924406
0.64993724
0.60520107
0.53211441
0.21229672
0.11950668
0.19491625
0.46044105
0.13903331
0.43130311
0.81012172
2.3478624
2.5441692
2.6210936
2.6489336
2.6568266
2.6498055
2.5548727
2.5459777
2.556461
2.5838538
2.6255611
2.6793342
2.7425901
2.8165372
2.9155893
3.0868288
1.5255489
1.680706
0.8751804
1.7698461
1.7414515
1.5528864
1.4433643
1.3672983
1.3054364
1.2741692
0.65859467
0.68308654
0.6248906
0.5747641
0.52937739
0.48596542
0.44147421
0.39951589
0.36606895
0.34260365
0.32827297
0.32876531
0.45012819
0.20261727
0.23382195
0.53894836
0.18880052
0.48766508
0.96070734
2.4295732
2.5696804
2.6311043
2.6542112
2.6611598
2.6551865
2.4101781
2.4051172
2.4211719
2.455368
2.5045224
2.5659957
2.6373859
2.7179234
2.8201235
2.9741628
1.4615048
1.5816454
0.84862085
0.83276831
0.87427861
1.6710772
1.5447325
1.4574081
1.3758709
1.2918097
0.58969762
0.60895788
0.45349253
0.38347295
0.35276081
0.31768778
0.2638739
0.20816248
0.17742211
0.17378699
0.17284414
0.16857534
0.32028722
0.21462075
0.27373136
0.25349009
1.0867481
2.4223821
2.5362242
2.6188858
2.6511909
2.6632162
2.6655766
2.6592363
2.2678958
2.2666806
2.2878207
2.3279181
2.3833697
2.4510678
2.5284436
2.6132591
2.7153737
2.8571611
1.3994747
1.4890431
0.78188816
0.82267576
0.82122553
1.7135605
1.5351236
1.4442761
1.3516274
1.2587566
0.58592797
0.32083069
0.23398886
0.16734581
0.19154112
0.23064617
0.23453326
0.14957401
0.098578913
0.076344265
0.073057713
0.12208357
0.35925877
0.42640928
0.47975093
0.14196569
0.45158056
1.1721874
2.5378013
2.6073826
2.6510411
2.6645125
2.6679171
2.6661095
2.6593844
2.1309482
2.1333822
2.1589496
2.2039029
2.2643176
2.3365651
2.4177602
2.5050897
2.6034004
2.7242651
2.8963876
1.4274835
1.5224477
1.6288476
0.75857664
0.73300656
1.4581797
1.3838939
0.65111186
0.63455103
0.55667779
0.33064923
0.22623163
0.18238447
0.41353429
0.30673835
0.29412518
0.20549443
0.12670043
0.13549356
0.13201953
0.25755407
0.20102876
0.4368627
0.15561586
0.20140916
1.0478928
2.4883718
2.5891183
2.6335903
2.6570131
2.6632929
2.6633944
2.6599062
2.653597
2.0019729
2.007689
2.0368521
2.0854822
2.1493158
2.2243541
2.3070126
2.3936292
2.4835309
2.5829092
2.7032778
1.3245028
1.4117475
1.4088116
1.254133
1.1819566
1.1291427
1.0702422
1.0382824
0.98948491
0.90757483
0.81483194
0.71683876
0.62886946
0.58469323
0.51805479
0.47268181
0.43901182
0.41677239
0.42829879
0.41958858
0.3542933
0.34528037
0.37330624
0.076433954
0.8589374
2.3158566
2.5153333
2.5941389
2.6264845
2.6427075
2.6482737
2.6488926
2.6460921
2.6410739
1.8828981
1.8914268
1.9233272
1.9744155
2.0402039
2.1163497
2.1984976
2.2818192
2.3609241
2.4344079
2.4929496
1.1596773
0.50343072
0.36734803
0.24669807
0.21668641
0.20318508
0.19314571
0.18568432
0.18347939
0.18268552
0.18356157
0.18033265
0.16632045
0.14446425
0.11875272
0.11101423
0.11745656
0.12729769
0.13363883
0.16895257
0.33705761
0.32304428
0.31197743
0.2207957
0.26419552
0.97327559
2.3653415
2.5084758
2.5702218
2.5992487
2.614585
2.6221912
2.6253837
2.624882
2.6218345
1.774789
1.7856206
1.819429
1.8718821
1.938372
2.0143117
2.0948726
2.174548
2.245987
2.302377
2.3377515
1.0718
0.47086841
0.14259007
0.33213095
0.3273311
0.32464441
0.35603395
0.30665634
0.096669227
0.81067991
2.1494457
2.3719269
2.4790214
2.5313832
2.5598493
2.5767023
2.5875121
2.5942135
2.5968664
2.5962352
1.6779789
1.6906497
1.7256571
1.7785435
1.8446899
1.9194572
1.9978837
2.0743548
2.1414065
2.1912129
2.216118
1.0289549
0.80694658
0.087360076
0.3859233
0.41654252
0.11781474
0.1925903
0.31907558
0.26522497
0.13059126
0.28509182
0.91742663
2.1949251
2.3553123
2.4371939
2.4843165
2.5128162
2.532043
2.5463504
2.5567307
2.5627382
2.5646561
1.5921615
1.6063231
1.6419815
1.6945549
1.7595144
1.8323081
1.9080618
1.9813496
2.0449773
2.0921755
2.1111115
0.98791217
0.8289591
0.17556679
0.37834558
0.45983947
0.1802186
0.097331072
0.15089146
0.18484713
0.18327351
0.098472339
0.77618973
1.983143
2.2017584
2.3217207
2.3892137
2.4323198
2.4611531
2.4828719
2.5004314
2.514176
2.5232124
2.5273604
1.5165497
1.5320287
1.5679545
1.6196571
1.6827823
1.7529568
1.8255227
1.8954113
1.9560328
2.0012821
2.0137253
1.9251582
0.85050625
0.30240308
0.12808789
0.46932548
0.45404654
0.11951056
0.09302838
0.16466116
0.40957324
0.45554867
0.18430298
0.30103267
0.86727151
2.0288767
2.1883557
2.2793959
2.3375909
2.3774462
2.4068018
2.4307363
2.4510541
2.4675898
2.4790454
2.4849596
1.4502631
1.4669697
1.5028853
1.5533311
1.6141765
1.681282
1.7502758
1.8164887
1.8740265
1.9167899
1.9312168
1.8739483
0.85561417
0.37810417
0.066075012
0.41701986
0.49568484
0.19008981
0.17444595
0.57328249
0.55896357
0.27989114
0.097102804
0.13836154
0.75054909
1.8448253
2.0423404
2.1600685
2.2330183
2.2837276
2.3210545
2.3509365
2.3766543
2.399146
2.4177998
2.4310166
2.4382718
1.3926996
1.4103775
1.4460133
1.4949325
1.5532221
1.6169989
1.6822193
1.7446162
1.7990498
1.8393589
1.8561583
1.8194646
0.84805352
0.66741945
0.34296804
0.49063281
0.43108585
0.045095588
0.12747117
0.30495258
0.57353869
0.56180441
0.30070755
0.6639279
1.7032006
1.9029549
2.0375033
2.1236736
2.1836134
2.2283925
2.2639279
2.294254
2.3213085
2.3453772
2.3654767
2.3798564
2.3880854
1.3432861
1.3615496
1.3966114
1.4437944
1.4993736
1.5597209
1.6211506
1.6798425
1.7315241
1.7705378
1.7911444
1.7721826
0.84075621
0.71882985
0.26419127
0.12277107
0.44041404
0.47240618
0.14634628
0.22366975
0.62391512
0.81053964
1.658491
1.7940891
1.9199839
2.0133921
2.0803063
2.1313449
2.1720815
2.2065202
2.2372055
2.2651813
2.2902571
2.3111907
2.3262414
2.3351261
1.3012685
1.3198049
1.3540157
1.3992839
1.4520648
1.5089753
1.5666986
1.6219272
1.6713433
1.7107223
1.7370167
1.7367744
1.6704615
0.78972281
0.65082769
0.1739741
0.36303393
0.44925434
0.32264155
0.78814172
1.6760833
1.8013236
1.8984284
1.9736244
2.0309761
2.076913
2.1153537
2.1492174
2.1801543
2.2086533
2.2342098
2.2554559
2.2707823
2.2800446
1.2657659
1.2844758
1.3176153
1.3608202
1.4107415
1.4642279
1.5183083
1.570159
1.6172482
1.6567147
1.6871748
1.7023711
1.681141
1.6244048
0.77794421
0.67342856
0.30090725
0.29931235
0.40624163
0.34347331
0.13009039
0.25031006
0.74720574
1.6545301
1.7718731
1.8591055
1.9264534
1.9788108
2.0218504
2.0589729
2.0924639
2.123447
2.1520697
2.1776328
2.1987582
2.214047
2.2234422
1.2361828
1.2549827
1.2868727
1.3278851
1.3748939
1.4249618
1.4754103
1.5237955
1.5680879
1.6062983
1.6374753
1.6589432
1.6584067
1.6352569
1.5779427
1.5108257
0.69212204
0.55030703
0.1213982
0.10882886
0.36383634
0.33803114
0.15431353
0.5948651
1.4781594
1.6347804
1.7391879
1.8176308
1.8783239
1.9267894
1.967623
2.0036715
2.0366891
2.067416
2.0957567
2.1209114
2.1415673
2.1565578
2.1658746
1.2121909
1.2308733
1.2613483
1.3000533
1.3441002
1.3907577
1.4375922
1.482448
1.5235928
1.5595192
1.5893069
1.6114411
1.6189454
1.6092445
1.577913
1.5327652
1.4712762
0.68484094
0.58203488
0.2496711
0.33808279
0.34582254
0.27449755
0.10778197
0.22570631
0.65816532
1.4952655
1.6195868
1.7081096
1.7770306
1.8313999
1.8762633
1.9150048
1.9498934
1.9821942
2.0123288
2.0400192
2.0644235
2.0843417
2.0988208
2.1078727
1.1934973
1.2118194
1.2407162
1.2770048
1.318041
1.3613052
1.4045809
1.4459528
1.483898
1.5171963
1.5449986
1.5662461
1.5766851
1.5738687
1.5560693
1.5278587
1.4899211
1.4332186
1.3529096
0.5976809
0.45592864
0.092179175
0.31913049
0.91698972
0.33983841
0.14893546
0.10139767
0.54950476
1.3431994
1.4984314
1.6008332
1.6767524
1.7370243
1.7859663
1.8275278
1.8642337
1.8978281
1.929161
1.9584013
1.9851427
2.0085408
2.0275218
2.041318
2.0499519
1.1798638
1.1976139
1.2247744
1.2585325
1.2965027
1.3363851
1.376174
1.4141693
1.4490261
1.479724
1.5055275
1.5256741
1.5375402
1.5391513
1.5300079
1.5136475
1.4916849
1.4582476
1.4091428
1.3442277
0.6011578
0.50361744
0.2312661
0.39783074
1.0126794
0.38805754
0.29310072
0.079756936
0.45299738
1.2013826
1.3756199
1.4959329
1.5798244
1.6449273
1.6977933
1.7420869
1.780641
1.8153659
1.8475453
1.8777051
1.9058209
1.9314007
1.9536195
1.9715306
1.9845179
1.9926151
1.1711659
1.1881807
1.2134573
1.2445611
1.2793857
1.3158701
1.3522243
1.3869468
1.4188573
1.4470888
1.4710348
1.4901565
1.5028849
1.5078266
1.5048932
1.4963027
1.4837352
1.463359
1.431583
1.3867469
1.3351959
1.2824417
0.57941661
1.1541935
1.1368736
1.1696763
0.47572854
0.47752329
0.18301492
0.15457269
0.5460264
1.2582643
1.3908777
1.4860507
1.5565565
1.61282
1.6596026
1.6998314
1.7356225
1.768402
1.7990805
1.8279244
1.854766
1.8790571
1.9000093
1.9167801
1.9288744
1.9363494
1.1674332
1.1835963
1.2068509
1.2351593
1.266723
1.299746
1.3326636
1.3641697
1.3932379
1.4191319
1.4413739
1.4596036
1.4729173
1.480406
1.4820899
1.4792049
1.47281
1.4607786
1.439829
1.4098981
1.374928
1.3373704
1.3113418
1.2897833
1.2912002
1.3415386
1.4810987
1.617262
0.6627559
0.56692163
0.14707041
0.45895014
1.1381934
1.2876395
1.3936702
1.4714875
1.5315719
1.580657
1.6224431
1.6591597
1.6924087
1.7233131
1.7524532
1.7799107
1.8054107
1.8283718
1.848037
1.8636527
1.874817
1.881626
1.168879
1.1841095
1.2052093
1.2305589
1.2587008
1.2881337
1.3175373
1.3458022
1.3720491
1.3956602
1.4162725
1.4336626
1.4473329
1.4567109
1.4618101
1.4632249
1.4612963
1.4546623
1.4411782
1.4244104
1.4052263
1.3889418
1.3861333
1.400745
1.4389543
1.5120437
1.6272527
1.7341786
1.8107398
0.77097222
0.65301033
0.47803109
0.078461025
0.19180181
0.53751267
1.1903564
1.3048448
1.3892715
1.4540707
1.505638
1.5488049
1.5863676
1.6199985
1.6509493
1.680068
1.7076897
1.733762
1.7579279
1.7795896
1.7980119
1.8125114
1.822751
1.8288839
1.1758888
1.1901383
1.2089601
1.2311651
1.2556713
1.2813098
1.3070268
1.3319179
1.3552517
1.376512
1.3954261
1.4118625
1.4255565
1.4361403
1.4435296
1.4478214
1.4491077
1.4469006
1.4417402
1.4351212
1.4307854
1.4348465
1.456028
1.4987219
1.5648427
1.6543311
1.758695
1.8424247
1.8773583
1.8660016
1.7799844
0.70266083
0.55713662
0.17378541
0.46986354
1.0886573
1.2200097
1.3110265
1.3802016
1.4346725
1.4792798
1.5175113
1.5514226
1.5823318
1.6112125
1.6386592
1.6648342
1.6895832
1.7124909
1.7329413
1.7502175
1.7636805
1.7730414
1.77852
1.1890003
1.2022512
1.2186848
1.2375425
1.2581529
1.2797137
1.301468
1.322733
1.3429268
1.3616266
1.3786191
1.3938167
1.4070563
1.4180572
1.4266418
1.4327772
1.4374798
1.4400959
1.4415225
1.4445522
1.4541868
1.4767887
1.5194234
1.5848903
1.6716222
1.7725711
1.8719036
1.9387109
1.9498992
1.9056243
1.8059478
1.6662429
1.5523833
0.63320455
0.50668179
0.17329186
0.23728369
0.53869246
1.141992
1.2397547
1.3111524
1.3680536
1.4140742
1.4528977
1.4868998
1.5176467
1.5461712
1.573196
1.5991113
1.6239547
1.6474932
1.6692671
1.6886424
1.7049076
1.7174503
1.7260115
1.7308825
1.2088236
1.2210959
1.2350556
1.2503664
1.2667888
1.283922
1.3013414
1.3186096
1.3353062
1.351098
1.3658064
1.3793338
1.3915425
1.4022208
1.4115761
1.4199005
1.4270464
1.4335484
1.4413063
1.4539595
1.4769469
1.5164773
1.5779692
1.6626869
1.7659919
1.876132
1.971935
2.0230388
2.0156924
1.9451563
1.831403
1.6964859
1.5593979
1.4044513
1.2234601
0.58324009
0.51698261
0.25269153
0.50240393
1.0754533
1.1793819
1.251205
1.3075867
1.3539604
1.3928776
1.4267426
1.4571072
1.4851236
1.5115651
1.5369409
1.5614854
1.5851415
1.6076181
1.6284187
1.6468888
1.6623077
1.6740704
1.681935
1.6862611
1.2359053
1.2472661
1.258713
1.2703059
1.2822504
1.2945736
1.307217
1.3200232
1.3327568
1.3451819
1.3571428
1.3684982
1.3791313
1.3894478
1.399385
1.4087151
1.4178771
1.4282749
1.4424408
1.4646179
1.5003119
1.5554334
1.6341153
1.7359911
1.8536155
1.971081
2.0623315
2.0994888
2.0730233
1.9773994
1.8478157
1.713786
1.5763327
1.4322048
1.2580218
1.0674049
0.5782301
0.5426751
1.0636938
1.1433213
1.205873
1.2573716
1.3008918
1.3384838
1.371477
1.4010919
1.4283317
1.4539911
1.4786119
1.5025336
1.5258741
1.5485084
1.5700972
1.590108
1.6078605
1.6226121
1.6337482
1.6410313
1.6448877
1.2705136
1.2810715
1.2900424
1.2978222
1.3050516
1.3122034
1.3196147
1.3274474
1.335694
1.3442405
1.3529522
1.3616735
1.3706752
1.3804133
1.3902031
1.4002491
1.4115188
1.4260439
1.4468045
1.4782309
1.5258536
1.5952915
1.6898111
1.8074257
1.9377333
2.0600912
2.1456069
2.1732629
2.1297145
2.0170912
1.8790539
1.7464122
1.6139743
1.4722675
1.3266857
1.1821421
1.0705239
1.0788365
1.1306238
1.1783022
1.2197466
1.2573595
1.2912802
1.3220917
1.3502352
1.3762699
1.4008255
1.4244321
1.447453
1.4701012
1.4924063
1.514189
1.5350701
1.5544824
1.5717125
1.5859817
1.5966508
1.6034676
1.6069278
1.312358
1.3222386
1.3288728
1.3328833
1.335284
1.336997
1.3387834
1.3411657
1.3444175
1.3485951
1.3536279
1.3593962
1.3668556
1.3756311
1.3853151
1.3963586
1.4102704
1.4293041
1.4567629
1.4969738
1.5553368
1.6373677
1.7459306
1.877367
2.0177836
2.1424636
2.2242579
2.2483627
2.1937307
2.0730964
1.9324723
1.7916305
1.6464182
1.5015071
1.3624248
1.2263506
1.1389448
1.1355787
1.1638981
1.1945603
1.2243385
1.2529829
1.2800548
1.3056061
1.3297325
1.3527021
1.374904
1.396685
1.4182825
1.4398123
1.4612365
1.4823332
1.5026862
1.5216904
1.5385899
1.5525555
1.5629088
1.5693669
1.5724975
1.3602766
1.3695328
1.3740308
1.3745594
1.3722394
1.3684368
1.3643665
1.360951
1.3588127
1.3582524
1.3593599
1.3620997
1.3679004
1.3760794
1.3864145
1.3994554
1.4169433
1.4410737
1.4749601
1.5225773
1.5893819
1.6809316
1.8002194
1.9421715
2.089403
2.2154698
2.3004949
2.3272757
2.2694307
2.1506856
2.010553
1.8589259
1.6968181
1.5417669
1.4034755
1.2761685
1.1940736
1.1742246
1.1853534
1.204591
1.2258353
1.2475438
1.2690337
1.2900989
1.3106758
1.330875
1.3509165
1.3710152
1.391311
1.4118433
1.4325201
1.4530808
1.473073
1.4918466
1.5085917
1.5224209
1.5325931
1.5387828
1.5416352
1.4120435
1.4205793
1.4229223
1.4203871
1.4140323
1.4049683
1.3950775
1.3857536
1.3780339
1.3725728
1.3697406
1.3697226
1.3739311
1.3823943
1.3949624
1.4121346
1.4349148
1.4648238
1.5035366
1.5548682
1.6255915
1.7215808
1.8463188
1.9942412
2.1461681
2.2800279
2.3751959
2.4059411
2.3578388
2.2514192
2.1172232
1.9532383
1.7690218
1.6003588
1.456574
1.3318517
1.2454381
1.209592
1.2056954
1.2143978
1.2277816
1.2432244
1.2596146
1.2765207
1.2937527
1.3113009
1.3292602
1.3477433
1.3668061
1.3864258
1.4064618
1.4266134
1.4463885
1.4650838
1.4818262
1.495664
1.5057669
1.5117523
1.5143664
1.4640986
1.4717684
1.4718301
1.4659589
1.4557201
1.4424681
1.4277639
1.4129094
1.3996967
1.3893726
1.3827483
1.3804238
1.3831047
1.3933475
1.4105964
1.4355031
1.4677162
1.5050752
1.545286
1.5928776
1.6600551
1.7530012
1.877984
2.0317355
2.1930755
2.3381998
2.4437779
2.4831304
2.4559824
2.3717196
2.2521434
2.0661814
1.8496867
1.6652683
1.5154269
1.3889287
1.2949057
1.2448308
1.2272177
1.2257053
1.231505
1.2409843
1.2525031
1.2653903
1.2793408
1.2942552
1.310135
1.3270074
1.3448642
1.3636211
1.3830897
1.4029274
1.4225974
1.4413288
1.4581949
1.4721625
1.4822672
1.488105
1.4905042
1.5124513
1.5191813
1.5171303
1.5080875
1.4938707
1.47605
1.4563944
1.436643
1.4185894
1.4037889
1.3935967
1.3892707
1.3920648
1.4035805