/*--------------------------------*- C++ -*----------------------------------*\
  =========                 |
  \\      /  F ield         | OpenFOAM: The Open Source CFD Toolbox
   \\    /   O peration     | Website:  https://openfoam.org
    \\  /    A nd           | Version:  8
     \\/     M anipulation  |
\*---------------------------------------------------------------------------*/
FoamFile
{
    version     2.0;
    format      ascii;
    class       volScalarField;
    location    "10800/air";
    object      p;
}
// * * * * * * * * * * * * * * * * * * * * * * * * * * * * * * * * * * * * * //

dimensions      [1 -1 -2 0 0 0 0];

internalField   nonuniform List<scalar> 
167754
(
99952.665
99952.675
99952.696
99952.727
99952.768
99952.816
99952.872
99952.934
99952.999
99953.066
99953.135
99953.203
99953.272
99953.343
99953.418
99953.499
99953.59
99953.693
99953.807
99953.932
99954.063
99954.193
99954.321
99954.449
99954.572
99954.684
99954.78
99954.855
99954.908
99954.939
99954.947
99954.933
99954.899
99954.847
99954.779
99954.695
99954.599
99954.492
99954.376
99954.255
99954.13
99954.004
99953.881
99953.761
99953.647
99953.538
99953.436
99953.34
99953.25
99953.167
99953.091
99953.023
99952.964
99952.913
99952.872
99952.841
99952.818
99952.804
99952.797
99952.657
99952.668
99952.689
99952.721
99952.762
99952.812
99952.868
99952.93
99952.996
99953.063
99953.13
99953.195
99953.258
99953.322
99953.387
99953.459
99953.539
99953.633
99953.745
99953.876
99954.022
99954.159
99954.287
99954.42
99954.552
99954.671
99954.773
99954.853
99954.909
99954.941
99954.949
99954.936
99954.902
99954.849
99954.779
99954.695
99954.597
99954.489
99954.372
99954.249
99954.123
99953.996
99953.871
99953.751
99953.636
99953.528
99953.426
99953.33
99953.24
99953.157
99953.081
99953.013
99952.954
99952.905
99952.865
99952.835
99952.813
99952.8
99952.793
99952.639
99952.649
99952.671
99952.703
99952.745
99952.796
99952.855
99952.919
99952.986
99953.053
99953.118
99953.178
99953.231
99953.28
99953.328
99953.379
99953.44
99953.52
99953.628
99953.773
99953.958
99954.111
99954.233
99954.366
99954.515
99954.648
99954.763
99954.852
99954.913
99954.948
99954.958
99954.944
99954.908
99954.854
99954.782
99954.695
99954.595
99954.484
99954.364
99954.238
99954.107
99953.977
99953.85
99953.728
99953.613
99953.505
99953.404
99953.309
99953.219
99953.137
99953.062
99952.997
99952.942
99952.896
99952.861
99952.834
99952.814
99952.803
99952.797
99952.622
99952.633
99952.654
99952.686
99952.727
99952.778
99952.837
99952.902
99952.971
99953.039
99953.102
99953.154
99953.192
99953.217
99953.235
99953.25
99953.273
99953.324
99953.411
99953.595
99982.217
99982.375
99954.147
99954.264
99954.438
99954.602
99954.741
99954.846
99954.915
99954.955
99954.967
99954.952
99954.915
99954.857
99954.783
99954.694
99954.592
99954.477
99954.352
99954.219
99954.083
99953.947
99953.815
99953.692
99953.577
99953.47
99953.371
99953.279
99953.193
99953.116
99953.048
99952.991
99952.944
99952.907
99952.878
99952.857
99952.842
99952.833
99952.829
99952.626
99952.636
99952.656
99952.685
99952.724
99952.772
99952.827
99952.89
99952.958
99953.029
99953.091
99953.134
99953.15
99953.139
99953.108
99953.061
99953.007
99952.995
99981.663
99981.812
99982.138
99982.444
99982.359
99954.034
99982.583
99954.499
99954.684
99954.819
99954.904
99954.953
99954.97
99954.953
99954.912
99954.851
99954.776
99954.686
99954.581
99954.464
99954.334
99954.194
99954.048
99953.903
99953.767
99953.641
99953.528
99953.426
99953.333
99953.248
99953.171
99953.104
99953.048
99953.003
99952.967
99952.941
99952.921
99952.907
99952.897
99952.891
99952.888
99952.65
99952.66
99952.678
99952.705
99952.74
99952.783
99952.833
99952.888
99952.955
99953.032
99953.095
99953.132
99953.121
99953.057
99952.95
99952.808
99952.649
99981.28
99981.366
99981.499
99996.263
99996.395
99982.051
99982.099
99982.307
99982.678
99982.899
99983.033
99954.867
99954.924
99954.954
99954.938
99954.893
99954.828
99954.754
99954.665
99954.561
99954.442
99954.307
99954.158
99953.999
99953.843
99953.7
99953.575
99953.467
99953.374
99953.292
99953.219
99953.154
99953.099
99953.056
99953.024
99953.002
99952.985
99952.974
99952.967
99952.963
99952.96
99952.958
99952.683
99952.693
99952.71
99952.735
99952.767
99952.806
99952.849
99952.894
99952.954
99953.041
99953.131
99953.171
99953.132
99952.999
99952.773
99952.515
99981.026
99981.107
99995.567
99996.018
99995.83
99981.658
99981.635
99996.28
99996.93
99982.823
99982.951
99983.09
99983.153
99983.179
99954.897
99954.829
99954.77
99954.706
99954.63
99954.531
99954.416
99954.278
99954.115
99953.936
99953.76
99953.61
99953.49
99953.392
99953.313
99953.245
99953.185
99953.134
99953.094
99953.065
99953.047
99953.035
99953.029
99953.026
99953.025
99953.025
99953.026
99953.026
99952.713
99952.723
99952.74
99952.765
99952.796
99952.833
99952.869
99952.894
99952.925
99981.166
99953.198
99953.281
99953.233
99953.025
99952.636
99980.929
99980.814
99995.197
99981.244
99981.389
99995.64
99997.256
99997.306
99983.064
99983.093
99983.139
99983.052
99954.629
99954.597
99954.552
99954.479
99954.385
99954.255
99954.076
99953.86
99953.649
99953.491
99953.383
99953.299
99953.237
99953.185
99953.14
99953.104
99953.08
99953.066
99953.061
99953.06
99953.062
99953.066
99953.071
99953.076
99953.08
99953.082
99952.731
99952.742
99952.761
99952.787
99952.82
99952.858
99952.892
99952.883
99981.037
99981.074
99981.398
99981.582
99953.491
99953.197
99952.684
99980.768
99994.889
99981.035
99981.027
99995.277
99997.293
99997.36
99982.841
99982.851
99982.819
99982.785
99954.378
99954.33
99954.229
99954.042
99953.767
99953.491
99953.333
99953.255
99953.184
99953.139
99953.106
99953.077
99953.059
99953.053
99953.055
99953.061
99953.07
99953.079
99953.089
99953.098
99953.107
99953.114
99953.118
99952.729
99952.742
99952.764
99952.796
99952.835
99952.88
99952.926
99952.959
99980.954
99995.055
99995.646
99981.809
99981.908
99981.758
99981.423
99980.867
99994.992
99995.047
99980.723
99995.077
99997.183
99996.997
99982.601
99982.631
99982.59
99982.518
99954.017
99953.597
99953.203
99953.116
99953.1
99953.041
99953.022
99953.01
99952.994
99952.995
99953.01
99953.027
99953.045
99953.062
99953.075
99953.087
99953.099
99953.112
99953.123
99953.13
99952.706
99952.722
99952.749
99952.789
99952.842
99952.903
99952.986
99981.106
99981.089
99995.084
99996.256
99982.02
99981.6
99980.971
99980.05
99980.251
99994.785
99996.866
99996.731
99982.458
99982.356
99981.776
99952.612
99952.73
99981.459
99952.863
99952.862
99952.893
99952.887
99952.911
99952.954
99952.986
99953.018
99953.04
99953.05
99953.058
99953.069
99953.086
99953.102
99953.113
99952.658
99952.677
99952.711
99952.764
99952.839
99952.916
99981.116
99981.143
99995.158
99996.533
99996.307
99995.406
99979.694
99994.125
99996.58
99995.425
99979.971
99980.554
99981.254
99981.458
99981.438
99981.438
99952.754
99952.786
99952.912
99952.949
99952.991
99953.014
99953.006
99952.998
99953.001
99953.022
99953.048
99953.065
99952.586
99952.608
99952.65
99952.719
99952.822
99953.001
99981.075
99981.24
99995.006
99993.457
99979.3
99993.874
99989.726
99978.977
99995.611
99996.139
99995.983
99981.535
99981.476
99981.47
99981.568
99952.95
99952.979
99953.021
99952.954
99952.901
99952.884
99952.914
99952.955
99952.984
99952.487
99952.512
99952.559
99952.643
99952.77
99981.062
99981.248
99995.353
99992.386
99978.585
99993.033
99974.244
99991.129
99996.305
99996.142
99981.789
99981.852
99981.872
99981.802
99981.747
99952.891
99952.725
99952.685
99952.744
99952.819
99952.867
99952.363
99952.386
99952.434
99952.521
99952.716
99980.911
99995.316
99977.925
99978.102
99992.369
99988.63
99974.322
99989.892
99996.939
99996.853
99982.307
99982.081
99981.828
99981.301
99952.362
99952.493
99952.638
99952.719
99952.212
99952.227
99952.258
99952.31
99980.676
99980.897
99995.293
99990.649
99977.311
99991.797
99988.987
99974.563
99989.126
99997.234
99996.781
99980.781
99980.708
99952.147
99952.423
99952.545
99952.037
99952.035
99952.021
99952.053
99980.273
99994.888
99976.654
99976.855
99991.016
99975.161
99989.436
99992.202
99979.818
99951.847
99952.207
99952.366
99951.847
99951.822
99951.714
99979.931
99979.681
99994.282
99989.877
99976.46
99976.593
99989.699
99975.141
99989.385
99993.049
99979.58
99951.679
99952.035
99952.208
99951.657
99951.615
99951.47
99979.369
99978.711
99989.466
99975.916
99976.059
99990.285
99989.536
99975.083
99989.439
99993.097
99979.498
99951.571
99951.905
99952.076
99951.487
99951.442
99951.311
99979.219
99978.681
99991.722
99975.284
99975.777
99975.732
99989.864
99975.297
99989.399
99978.601
99950.775
99951.449
99951.787
99951.958
99951.336
99951.292
99951.182
99950.833
99978.631
99991.89
99988.492
99975.362
99975.433
99989.695
99989.505
99974.927
99988.624
99978.738
99950.808
99951.368
99951.679
99951.844
99951.197
99951.158
99951.072
99950.862
99978.649
99977.77
99974.828
99975.232
99974.577
99988.915
99989.047
99974.687
99988.378
99978.638
99950.777
99951.277
99951.574
99951.73
99951.066
99951.03
99950.949
99950.788
99978.597
99977.973
99991.64
99988.102
99975.106
99975.143
99974.43
99972.629
99972.307
99972.27
99972.271
99972.284
99972.275
99972.222
99972.212
99972.243
99972.116
99972.002
99972.186
99972.809
99973.104
99973.219
99973.401
99973.65
99973.871
99974.117
99974.391
99974.731
99974.994
99974.613
99988.53
99978.658
99950.702
99951.17
99951.459
99951.607
99950.936
99950.901
99950.817
99950.67
99950.298
99978.018
99991.382
99974.816
99975.234
99974.954
99989.261
99973.743
99987.873
99987.598
99987.419
99987.388
99987.225
99986.993
99986.81
99987.115
99986.967
99986.59
99986.717
99986.862
99986.951
99986.975
99987.155
99987.517
99987.751
99987.993
99988.525
99989.212
99975.151
99974.465
99988.613
99992.558
99978.478
99950.602
99951.056
99951.334
99951.475
99950.809
99950.773
99950.691
99950.558
99950.306
99978.028
99991.351
99987.901
99975.214
99975.269
99974.484
99988.581
99987.669
99973.369
99973.653
99987.297
99985.488
99972.406
99985.422
99986.62
99986.746
99988.059
99973.973
99974.417
99974.599
99974.155
99988.584
99992.284
99978.422
99950.516
99950.937
99951.199
99951.332
99950.687
99950.649
99950.568
99950.43
99950.214
99977.979
99977.062
99987.99
99974.873
99975.642
99975.491
99974.363
99987.641
99985.693
99988.2
99988.535
99987.691
99986.327
99985.778
99985.827
99985.887
99986.193
99986.054
99985.829
99985.745
99985.786
99985.916
99972.079
99973.297
99988.092
99987.872
99973.445
99974.099
99974.402
99945.762
99973.952
99988.531
99991.963
99978.313
99950.428
99950.804
99951.05
99951.177
99950.568
99950.528
99950.444
99950.296
99950.064
99977.839
99977.057
99990.167
99974.283
99975.089
99989.805
99989.762
99989.044
99986.715
99971.538
99988.481
99983.385
99983.452
99983.534
99983.617
99983.668
99983.72
99983.771
99983.822
99983.894
99984.648
99974.055
99988.296
99988.23
99974.205
99946.306
99946.228
99974.404
99974.047
99988.45
99991.727
99978.178
99950.289
99950.647
99950.886
99951.009
99950.454
99950.411
99950.327
99950.175
99949.93
99949.361
99976.864
99989.27
99988.186
99974.992
99975.108
99989.094
99988.597
99989.266
99988.766
99987.919
99986.682
99985.181
99985.225
99972.558
99972.887
99972.99
99973.075
99973.166
99973.281
99973.415
99973.546
99973.625
99973.649
99974.102
99987.983
99973.933
99974.215
99974.375
99974.256
99974.052
99988.23
99977.214
99949.356
99950.092
99950.464
99950.706
99950.828
99950.343
99950.301
99950.221
99950.087
99949.887
99949.535
99948.993
99976.386
99975.369
99989.116
99975.335
99975.384
99988.981
99988.023
99986.182
99970.715
99971.881
99944.557
99944.842
99944.972
99945.079
99945.191
99945.316
99945.449
99945.581
99945.711
99973.564
99973.983
99986.953
99973.491
99974.007
99974.275
99974.291
99974.168
99988.333
99977.158
99949.305
99949.931
99950.281
99950.519
99950.637
99950.233
99950.193
99950.121
99950.009
99949.85
99949.626
99949.334
99948.926
99976.626
99976.285
99948.145
99947.336
99974.869
99973.086
99986.045
99985.807
99971.087
99943.934
99944.424
99944.653
99944.78
99944.881
99944.984
99945.099
99945.226
99945.367
99945.522
99973.488
99973.924
99986.738
99973.278
99987.707
99974.181
99974.351
99974.448
99974.411
99988.466
99988.63
99977.047
99949.201
99949.755
99950.098
99950.326
99950.438
99950.122
99950.084
99950.018
99949.918
99949.783
99949.6
99949.383
99949.133
99948.798
99948.648
99977.055
99976.526
99975.2
99973.526
99986.612
99970.854
99943.533
99944.147
99944.456
99944.621
99944.722
99944.804
99944.892
99944.993
99945.113
99945.257
99945.429
99973.446
99973.834
99987.044
99987.251
99987.561
99987.923
99988.22
99988.514
99988.708
99974.562
99974.417
99974.476
99988.962
99989.856
99991.077
99976.917
99949.07
99949.577
99949.906
99950.122
99950.228
99950.009
99949.972
99949.909
99949.817
99949.694
99949.534
99949.339
99949.133
99948.912
99977.258
99976.827
99991.24
99975.763
99973.918
99987.079
99971.136
99943.91
99944.38
99944.575
99944.664
99944.716
99944.764
99944.826
99944.907
99945.014
99945.163
99945.371
99973.44
99973.811
99987.339
99987.219
99973.694
99973.96
99988.043
99988.743
99988.853
99989.258
99975.615
99975.994
99976.384
99991.016
99991.8
99991.043
99976.949
99948.982
99949.402
99949.704
99949.906
99950.009
99949.892
99949.856
99949.797
99949.71
99949.596
99949.449
99949.267
99949.057
99948.837
99976.863
99976.667
99990.649
99989.842
99974.156
99987.299
99971.435
99944.251
99944.625
99944.71
99944.709
99944.695
99944.695
99944.718
99944.769
99944.852
99944.995
99945.258
99973.444
99973.836
99988.088
99987.229
99987.403
99987.614
99973.898
99987.985
99990.601
99991.506
99991.94
99977.874
99977.779
99977.678
99991.747
99991.888
99991.447
99976.909
99948.862
99949.198
99949.481
99949.679
99949.781
99949.771
99949.737
99949.681
99949.599
99949.491
99949.353
99949.181
99948.968
99948.74
99976.71
99976.395
99990.303
99975.176
99988.934
99986.934
99971.886
99944.685
99944.826
99944.742
99944.626
99944.533
99944.475
99944.452
99944.461
99944.504
99944.614
99944.903
99973.354
99973.945
99988.172
99987.863
99987.664
99973.753
99987.756
99993.718
99994.158
99993.7
99978.329
99977.36
99977.208
99948.057
99948.587
99948.926
99949.231
99949.44
99949.548
99949.646
99949.614
99949.561
99949.485
99949.383
99949.253
99949.091
99948.891
99948.665
99948.339
99976.474
99990.256
99989.599
99973.918
99986.45
99972.734
99973.346
99973.116
99972.84
99972.59
99972.402
99972.272
99972.19
99972.144
99972.13
99972.152
99972.247
99972.716
99973.784
99988.179
99987.934
99987.689
99973.71
99994.227
99990.924
99975.795
99947.484
99948.155
99948.597
99948.965
99949.202
99949.321
99949.518
99949.488
99949.439
99949.367
99949.272
99949.151
99949.002
99948.823
99948.627
99948.43
99976.475
99976.05
99989.824
99974.935
99973.692
99973.116
99973.208
99973.252
99973.555
99973.961
99987.409
99983.442
99982.965
99982.631
99982.395
99982.231
99982.115
99982.027
99981.962
99981.925
99981.92
99982.988
99973.27
99987.942
99987.774
99973.742
99987.582
99981.35
99972.47
99946.57
99947.636
99948.275
99948.721
99948.988
99949.119
99949.385
99949.357
99949.312
99949.246
99949.158
99949.046
99948.909
99948.749
99948.574
99948.436
99976.52
99976.34
99990.196
99990.105
99989.946
99974.795
99974.659
99974.603
99974.678
99974.959
99989.047
99983.055
99982.564
99982.298
99982.124
99982.084
99982.054
99982.001
99981.949
99981.891
99981.871
99983.388
99972.893
99987.389
99987.474
99987.496
99969.567
99944.65
99946.324
99947.391
99948.085
99948.549
99948.825
99948.96
99949.247
99949.222
99949.181
99949.121
99949.04
99948.936
99948.809
99948.662
99948.497
99948.38
99976.481
99976.383
99990.448
99990.157
99990.106
99975.897
99975.473
99975.46
99975.334
99975.272
99989.382
99988.09
99987.406
99986.906
99985.761
99972.629
99972.569
99985.782
99986.525
99986.727
99986.77
99986.228
99972.71
99973.121
99973.34
99987.416
99984.455
99970.947
99945.254
99946.525
99947.41
99948.037
99948.461
99948.721
99948.849
99949.106
99949.083
99949.046
99948.991
99948.917
99948.82
99948.701
99948.562
99948.405
99948.278
99948.157
99976.567
99976.505
99976.676
99990.733
99990.566
99976.188
99976.233
99990.034
99989.574
99988.596
99986.222
99985.678
99985.193
99970.886
99972.753
99972.602
99985.349
99984.971
99984.766
99984.862
99971.393
99986.514
99972.955
99987.168
99985.446
99971.086
99944.43
99945.74
99946.746
99947.498
99948.047
99948.424
99948.661
99948.778
99948.96
99948.941
99948.907
99948.858
99948.789
99948.698
99948.585
99948.451
99948.305
99948.188
99948.164
99976.711
99977.325
99977.915
99977.768
99977.482
99977.119
99976.731
99976.09
99975.363
99974.36
99973.264
99972.637
99972.281
99972.395
99972.749
99972.735
99972.389
99971.969
99971.724
99971.775
99972.113
99972.403
99972.583
99987.007
99971.265
99943.987
99945.112
99946.113
99946.935
99947.587
99948.071
99948.41
99948.626
99948.734
99948.812
99948.795
99948.765
99948.719
99948.656
99948.57
99948.461
99948.33
99948.184
99948.05
99948
99976.642
99991.602
99993.312
99993.007
99992.469
99991.982
99991.505
99990.857
99990.063
99989.186
99988.286
99987.584
99987.145
99986.953
99986.935
99986.932
99986.874
99986.678
99986.372
99985.821
99971.946
99972.038
99971.712
99984.94
99985.541
99971.469
99944.642
99945.566
99946.403
99947.107
99947.673
99948.102
99948.408
99948.607
99948.707
99948.662
99948.646
99948.619
99948.577
99948.518
99948.437
99948.331
99948.199
99948.043
99947.876
99947.737
99976.123
99990.345
99985.504
99971.768
99971.937
99971.238
99970.879
99970.996
99985.028
99971.441
99944.099
99945.059
99945.893
99946.636
99947.253
99947.75
99948.133
99948.413
99948.597
99948.69
99948.508
99948.494
99948.47
99948.432
99948.375
99948.298
99948.195
99948.064
99947.905
99947.726
99947.562
99975.881
99975.856
99985.532
99971.383
99971.835
99985.935
99984.78
99970.925
99971.054
99985.082
99985.551
99971.551
99944.588
99945.405
99946.161
99946.821
99947.368
99947.813
99948.161
99948.419
99948.59
99948.679
99948.353
99948.341
99948.318
99948.282
99948.229
99948.155
99948.056
99947.928
99947.77
99947.586
99947.409
99975.65
99975.645
99989.777
99971.235
99971.536
99985.92
99985.016
99985.027
99971.193
99971.287
99985.25
99971.43
99944.048
99944.912
99945.683
99946.376
99946.966
99947.458
99947.863
99948.183
99948.423
99948.584
99948.668
99948.196
99948.185
99948.164
99948.13
99948.079
99948.008
99947.912
99947.787
99947.629
99947.438
99947.233
99947.008
99975.42
99989.483
99985.211
99971.267
99971.784
99985.905
99985.219
99971.223
99971.139
99971.085
99985.191
99985.287
99971.452
99944.448
99945.204
99945.918
99946.547
99947.08
99947.529
99947.901
99948.198
99948.422
99948.574
99948.655
99948.038
99948.027
99948.007
99947.974
99947.926
99947.856
99947.763
99947.64
99947.483
99947.289
99947.071
99946.847
99975.138
99989.167
99985.13
99970.988
99971.458
99985.807
99984.964
99970.743
99970.847
99984.97
99984.859
99985.198
99971.16
99943.936
99944.741
99945.463
99946.12
99946.687
99947.173
99947.586
99947.929
99948.206
99948.416
99948.56
99948.636
99947.878
99947.868
99947.848
99947.816
99947.768
99947.7
99947.608
99947.487
99947.331
99947.136
99946.899
99946.638
99974.82
99974.56
99970.695
99971.048
99971.587
99985.746
99984.618
99984.83
99970.847
99970.225
99983.496
99970.529
99943.591
99944.344
99945.051
99945.707
99946.294
99946.806
99947.25
99947.629
99947.948
99948.206
99948.404
99948.539
99948.611
99947.718
99947.708
99947.688
99947.656
99947.608
99947.54
99947.449
99947.328
99947.173
99946.975
99946.722
99946.415
99974.466
99973.944
99987.356
99984.604
99970.64
99971.172
99985.404
99985.745
99971.783
99971.501
99943.818
99944.22
99944.778
99945.363
99945.93
99946.448
99946.908
99947.313
99947.662
99947.958
99948.199
99948.385
99948.511
99948.579
99947.557
99947.547
99947.527
99947.493
99947.444
99947.376
99947.285
99947.165
99947.012
99946.815
99946.556
99946.22
99945.726
99973.602
99972.541
99985.942
99970.391
99970.742
99971.124
99972.53
99944.439
99944.703
99945.136
99945.629
99946.119
99946.577
99946.993
99947.363
99947.685
99947.959
99948.184
99948.357
99948.475
99948.539
99947.397
99947.386
99947.364
99947.329
99947.278
99947.209
99947.117
99946.999
99946.848
99946.659
99946.417
99946.116
99945.725
99945.233
99973.005
99972.199
99986.017
99970.198
99970.373
99970.707
99984.806
99986.737
99972.47
99944.639
99944.96
99945.38
99945.828
99946.268
99946.682
99947.061
99947.399
99947.697
99947.951
99948.159
99948.32
99948.43
99948.489
99947.236
99947.225
99947.201
99947.164
99947.111
99947.04
99946.947
99946.829
99946.682
99946.501
99946.279
99946.011
99945.684
99945.286
99944.815
99944.341
99972.162
99971.674
99985.654
99984.098
99970.105
99970.322
99984.475
99972.475
99944.524
99944.786
99945.153
99945.565
99945.984
99946.388
99946.767
99947.113
99947.424
99947.698
99947.933
99948.126
99948.274
99948.375
99948.43
99947.076
99947.064
99947.039
99946.999
99946.943
99946.869
99946.774
99946.655
99946.51
99946.334
99946.124
99945.875
99945.58
99945.239
99944.849
99944.416
99943.953
99971.801
99971.227
99985.104
99969.926
99970.022
99970.122
99984.184
99986.417
99972.404
99944.702
99944.986
99945.347
99945.733
99946.119
99946.49
99946.836
99947.153
99947.438
99947.689
99947.905
99948.082
99948.217
99948.31
99948.36
99946.917
99946.904
99946.877
99946.835
99946.776
99946.698
99946.599
99946.478
99946.332
99946.159
99945.955
99945.717
99945.442
99945.127
99944.773
99944.372
99943.932
99943.444
99943.031
99970.964
99970.686
99984.701
99969.987
99941.85
99969.909
99983.784
99986.634
99972.44
99944.588
99944.855
99945.173
99945.525
99945.885
99946.239
99946.578
99946.893
99947.181
99947.441
99947.67
99947.866
99948.027
99948.15
99948.233
99948.278
99946.761
99946.747
99946.718
99946.673
99946.61
99946.528
99946.426
99946.301
99946.153
99945.979
99945.777
99945.546
99945.283
99944.984
99944.652
99944.284
99943.89
99943.469
99943.067
99942.743
99970.679
99970.415
99984.286
99970.088
99941.89
99969.783
99969.378
99983.1
99972.507
99944.585
99944.782
99945.044
99945.355
99945.687
99946.021
99946.345
99946.652
99946.937
99947.198
99947.433
99947.639
99947.816
99947.96
99948.07
99948.144
99948.185
99946.608
99946.593
99946.562
99946.514
99946.447
99946.361
99946.255
99946.126
99945.974
99945.798
99945.596
99945.367
99945.11
99944.824
99944.509
99944.169
99943.808
99943.434
99943.065
99942.75
99942.485
99942.336
99970.237
99941.953
99941.847
99941.719
99969.452
99969.194
99983.03
99986.587
99972.511
99944.749
99944.969
99945.234
99945.531
99945.839
99946.144
99946.436
99946.712
99946.969
99947.202
99947.412
99947.596
99947.753
99947.881
99947.978
99948.043
99948.078
99946.458
99946.442
99946.41
99946.359
99946.289
99946.199
99946.089
99945.956
99945.8
99945.62
99945.416
99945.186
99944.932
99944.653
99944.352
99944.031
99943.697
99943.359
99943.033
99942.751
99942.506
99942.31
99942.106
99941.948
99941.825
99941.695
99941.537
99941.422
99969.139
99969.102
99983.02
99972.571
99944.693
99944.891
99945.14
99945.411
99945.693
99945.976
99946.252
99946.514
99946.759
99946.986
99947.193
99947.378
99947.54
99947.677
99947.788
99947.872
99947.928
99947.958
99946.314
99946.297
99946.263
99946.21
99946.137
99946.044
99945.929
99945.792
99945.633
99945.449
99945.242
99945.011
99944.757
99944.483
99944.19
99943.884
99943.572
99943.266
99942.978
99942.721
99942.49
99942.288
99942.102
99941.941
99941.801
99941.675
99941.556
99941.465
99941.416
99969.135
99969.141
99969.181
99983.238
99986.556
99972.551
99944.846
99945.063
99945.315
99945.577
99945.84
99946.097
99946.344
99946.575
99946.791
99946.989
99947.168
99947.329
99947.468
99947.586
99947.681
99947.752
99947.799
99947.824
99946.174
99946.157
99946.122
99946.067
99945.992
99945.896
99945.779
99945.639
99945.475
99945.288
99945.078
99944.845
99944.591
99944.319
99944.032
99943.738
99943.445
99943.162
99942.897
99942.653
99942.433
99942.236
99942.057
99941.894
99941.753
99941.635
99941.542
99941.485
99941.468
99941.483
99941.504
99969.291
99969.37
99983.357
99972.438
99944.716
99944.966
99945.224
99945.48
99945.729
99945.97
99946.2
99946.417
99946.618
99946.804
99946.974
99947.127
99947.263
99947.38
99947.479
99947.558
99947.617
99947.655
99947.675
99946.041
99946.023
99945.987
99945.932
99945.855
99945.758
99945.639
99945.496
99945.331
99945.141
99944.929
99944.694
99944.439
99944.168
99943.886
99943.601
99943.319
99943.048
99942.791
99942.555
99942.341
99942.147
99941.97
99941.811
99941.675
99941.568
99941.499
99941.48
99941.508
99941.572
99941.653
99941.752
99941.798
99969.621
99969.725
99983.812
99985.979
99972.309
99944.839
99945.115
99945.381
99945.629
99945.862
99946.079
99946.282
99946.469
99946.641
99946.797
99946.939
99947.066
99947.178
99947.275
99947.355
99947.419
99947.465
99947.495
99947.51
99945.913
99945.896
99945.86
99945.804
99945.728
99945.63
99945.51
99945.367
99945.201
99945.011
99944.797
99944.561
99944.305
99944.035
99943.756
99943.475
99943.195
99942.926
99942.672
99942.437
99942.223
99942.028
99941.851
99941.694
99941.566
99941.474
99941.434
99941.454
99941.528
99941.644
99941.784
99941.933
99942.064
99942.19
99942.214
99969.999
99969.751
99983.568
99971.667
99944.567
99944.951
99945.262
99945.528
99945.762
99945.973
99946.165
99946.339
99946.496
99946.638
99946.766
99946.881
99946.983
99947.072
99947.148
99947.211
99947.26
99947.295
99947.317
99947.328
99945.792
99945.775
99945.739
99945.684
99945.609
99945.513
99945.394
99945.253
99945.088
99944.898
99944.685
99944.449
99944.194
99943.924
99943.645
99943.36
99943.078
99942.805
99942.548
99942.308
99942.088
99941.887
99941.707
99941.553
99941.432
99941.361
99941.352
99941.414
99941.536
99941.706
99941.906
99942.115
99942.315
99942.53
99942.76
99942.981
99970.857
99971.36
99944.384
99944.792
99945.131
99945.417
99945.66
99945.871
99946.057
99946.221
99946.366
99946.495
99946.608
99946.708
99946.797
99946.875
99946.942
99947
99947.046
99947.081
99947.105
99947.12
99947.127
99945.675
99945.659
99945.625
99945.572
99945.5
99945.406
99945.291
99945.154
99944.992
99944.806
99944.596
99944.362
99944.108
99943.838
99943.555
99943.266
99942.977
99942.697
99942.429
99942.178
99941.946
99941.736
99941.549
99941.394
99941.284
99941.235
99941.262
99941.367
99941.538
99941.763
99942.022
99942.291
99942.553
99942.831
99943.16
99943.522
99943.935
99944.302
99944.697
99945.024
99945.31
99945.554
99945.766
99945.949
99946.107
99946.243
99946.359
99946.459
99946.545
99946.619
99946.683
99946.739
99946.786
99946.825
99946.856
99946.879
99946.893
99946.901
99946.904
99945.563
99945.548
99945.516
99945.467
99945.398
99945.31
99945.201
99945.07
99944.915
99944.736
99944.532
99944.303
99944.053
99943.783
99943.497
99943.201
99942.904
99942.612
99942.329
99942.061
99941.811
99941.585
99941.388
99941.231
99941.131
99941.107
99941.172
99941.32
99941.542
99941.824
99942.142
99942.472
99942.795
99943.119
99943.479
99943.875
99944.277
99944.612
99944.917
99945.193
99945.438
99945.65
99945.831
99945.986
99946.115
99946.223
99946.311
99946.384
99946.444
99946.493
99946.535
99946.569
99946.598
99946.621
99946.639
99946.65
99946.656
99946.658
99946.658
99945.451
99945.437
99945.409
99945.364
99945.302
99945.222
99945.122
99945.001
99944.857
99944.689
99944.495
99944.276
99944.032
99943.766
99943.48
99943.181
99942.874
99942.567
99942.265
99941.973
99941.699
99941.452
99941.24
99941.078
99940.989
99940.991
99941.092
99941.287
99941.564
99941.905
99942.282
99942.67
99943.044
99943.397
99943.756
99944.129
99944.483
99944.789
99945.06
99945.302
99945.513
99945.693
99945.846
99945.972
99946.073
99946.153
99946.215
99946.262
99946.298
99946.325
99946.346
99946.362
99946.374
99946.383
99946.389
99946.391
99946.389
99946.386
99946.383
99945.335
99945.324
99945.3
99945.262
99945.208
99945.138
99945.05
99944.943
99944.814
99944.663
99944.486
99944.283
99944.053
99943.798
99943.519
99943.221
99942.91
99942.589
99942.264
99941.942
99941.635
99941.361
99941.129
99940.961
99940.881
99940.906
99941.046
99941.293
99941.631
99942.034
99942.467
99942.901
99943.306
99943.67
99944.009
99944.341
99944.647
99944.913
99945.15
99945.355
99945.531
99945.68
99945.802
99945.899
99945.972
99946.026
99946.063
99946.086
99946.1
99946.107
99946.11
99946.11
99946.109
99946.106
99946.102
99946.096
99946.088
99946.081
99946.076
99945.205
99945.197
99945.178
99945.148
99945.105
99945.048
99944.976
99944.887
99944.78
99944.651
99944.5
99944.322
99944.118
99943.886
99943.626
99943.343
99943.038
99942.713
99942.37
99942.014
99941.661
99941.352
99941.095
99940.919
99940.851
99940.898
99941.076
99941.377
99941.782
99942.251
99942.729
99943.185
99943.592
99943.937
99944.237
99944.516
99944.767
99944.985
99945.176
99945.339
99945.477
99945.59
99945.68
99945.747
99945.793
99945.821
99945.835
99945.838
99945.833
99945.824
99945.812
99945.8
99945.789
99945.777
99945.766
99945.754
99945.742
99945.732
99945.725
99945.051
99945.046
99945.034
99945.013
99944.982
99944.941
99944.888
99944.822
99944.742
99944.644
99944.527
99944.387
99944.223
99944.032
99943.813
99943.567
99943.292
99942.988
99942.648
99942.261
99941.838
99941.486
99941.207
99941.037
99940.996
99941.059
99941.256
99941.596
99942.069
99942.611
99943.105
99943.541
99943.906
99944.198
99944.438
99944.649
99944.835
99944.995
99945.132
99945.248
99945.344
99945.42
99945.476
99945.514
99945.534
99945.539
99945.533
99945.519
99945.499
99945.477
99945.456
99945.435
99945.416
99945.398
99945.381
99945.365
99945.35
99945.338
99945.331
99944.834
99944.832
99944.826
99944.816
99944.799
99944.775
99944.744
99944.706
99944.657
99944.598
99944.526
99944.439
99944.333
99944.207
99944.059
99943.885
99943.686
99943.453
99943.171
99942.796
99942.242
99941.849
99941.627
99941.504
99941.501
99941.56
99941.716
99942.004
99942.533
99943.173
99943.624
99943.963
99944.22
99944.408
99944.551
99944.67
99944.77
99944.854
99944.923
99944.981
99945.026
99945.058
99945.079
99945.086
99945.083
99945.071
99945.052
99945.028
99945.003
99944.978
99944.955
99944.933
99944.915
99944.898
99944.882
99944.868
99944.855
99944.845
99944.838
99944.585
99944.584
99944.584
99944.583
99944.579
99944.574
99944.566
99944.556
99944.543
99944.527
99944.505
99944.478
99944.444
99944.401
99944.347