/*--------------------------------*- C++ -*----------------------------------*\
  =========                 |
  \\      /  F ield         | OpenFOAM: The Open Source CFD Toolbox
   \\    /   O peration     | Website:  https://openfoam.org
    \\  /    A nd           | Version:  8
     \\/     M anipulation  |
\*---------------------------------------------------------------------------*/
FoamFile
{
    version     2.0;
    format      ascii;
    class       volScalarField;
    location    "10800/air";
    object      p_rgh;
}
// * * * * * * * * * * * * * * * * * * * * * * * * * * * * * * * * * * * * * //

dimensions      [1 -1 -2 0 0 0 0];

internalField   nonuniform List<scalar> 
167754
(
100009.29
100009.3
100009.32
100009.35
100009.4
100009.45
100009.51
100009.58
100009.65
100009.73
100009.81
100009.9
100009.99
100010.09
100010.19
100010.31
100010.42
100010.55
100010.67
100010.8
100010.92
100011.03
100011.14
100011.25
100011.35
100011.44
100011.52
100011.58
100011.62
100011.64
100011.64
100011.62
100011.58
100011.53
100011.46
100011.37
100011.27
100011.16
100011.05
100010.93
100010.8
100010.67
100010.55
100010.43
100010.31
100010.2
100010.1
100010
100009.91
100009.82
100009.74
100009.67
100009.61
100009.56
100009.52
100009.48
100009.46
100009.44
100009.44
100009.28
100009.29
100009.31
100009.35
100009.39
100009.44
100009.5
100009.57
100009.65
100009.73
100009.81
100009.9
100009.99
100010.09
100010.19
100010.3
100010.42
100010.54
100010.67
100010.8
100010.92
100011.03
100011.14
100011.25
100011.35
100011.45
100011.53
100011.59
100011.63
100011.65
100011.65
100011.63
100011.59
100011.53
100011.46
100011.37
100011.28
100011.17
100011.05
100010.93
100010.8
100010.67
100010.55
100010.43
100010.31
100010.2
100010.1
100010
100009.91
100009.82
100009.74
100009.67
100009.61
100009.56
100009.51
100009.48
100009.46
100009.44
100009.44
100009.26
100009.27
100009.29
100009.33
100009.37
100009.42
100009.49
100009.56
100009.63
100009.72
100009.8
100009.89
100009.98
100010.07
100010.17
100010.28
100010.4
100010.53
100010.67
100010.8
100010.92
100011.03
100011.13
100011.24
100011.36
100011.46
100011.54
100011.61
100011.65
100011.67
100011.66
100011.64
100011.6
100011.54
100011.47
100011.38
100011.28
100011.17
100011.05
100010.92
100010.79
100010.66
100010.54
100010.41
100010.3
100010.19
100010.09
100009.99
100009.9
100009.81
100009.73
100009.67
100009.61
100009.56
100009.52
100009.49
100009.47
100009.46
100009.45
100009.25
100009.26
100009.28
100009.31
100009.35
100009.4
100009.47
100009.54
100009.62
100009.7
100009.78
100009.87
100009.95
100010.04
100010.14
100010.25
100010.37
100010.51
100010.65
100010.79
100010.91
100011.01
100011.09
100011.22
100011.36
100011.48
100011.57
100011.64
100011.67
100011.69
100011.69
100011.66
100011.62
100011.56
100011.48
100011.39
100011.29
100011.17
100011.05
100010.91
100010.78
100010.64
100010.51
100010.39
100010.28
100010.17
100010.07
100009.98
100009.89
100009.81
100009.74
100009.68
100009.63
100009.59
100009.56
100009.53
100009.52
100009.51
100009.5
100009.25
100009.26
100009.28
100009.31
100009.35
100009.4
100009.45
100009.52
100009.6
100009.69
100009.77
100009.85
100009.93
100010.01
100010.09
100010.19
100010.31
100010.46
100010.6
100010.77
100010.9
100010.99
100011.03
100011.16
100011.34
100011.51
100011.61
100011.68
100011.71
100011.73
100011.72
100011.69
100011.64
100011.57
100011.49
100011.4
100011.29
100011.17
100011.04
100010.9
100010.76
100010.62
100010.49
100010.36
100010.25
100010.15
100010.06
100009.97
100009.89
100009.83
100009.77
100009.72
100009.68
100009.65
100009.62
100009.61
100009.59
100009.58
100009.58
100009.28
100009.29
100009.31
100009.33
100009.36
100009.41
100009.46
100009.52
100009.6
100009.69
100009.77
100009.85
100009.91
100009.97
100010.04
100010.11
100010.21
100010.37
100010.54
100010.72
100010.94
100010.8
100010.87
100011.01
100011.32
100011.58
100011.7
100011.75
100011.78
100011.78
100011.76
100011.72
100011.66
100011.59
100011.5
100011.41
100011.29
100011.17
100011.03
100010.88
100010.73
100010.58
100010.44
100010.33
100010.23
100010.14
100010.05
100009.98
100009.92
100009.86
100009.81
100009.78
100009.75
100009.72
100009.71
100009.69
100009.68
100009.68
100009.67
100009.32
100009.33
100009.34
100009.36
100009.39
100009.43
100009.47
100009.53
100009.61
100009.71
100009.81
100009.88
100009.93
100009.96
100009.97
100010
100010.06
100010.25
100010.44
100010.65
100010.59
100010.65
100010.67
100011.23
100011.81
100011.9
100011.89
100011.91
100011.89
100011.85
100011.76
100011.7
100011.61
100011.52
100011.42
100011.3
100011.17
100011.02
100010.86
100010.68
100010.52
100010.39
100010.28
100010.2
100010.12
100010.06
100010
100009.95
100009.9
100009.87
100009.84
100009.82
100009.8
100009.79
100009.78
100009.77
100009.77
100009.76
100009.35
100009.35
100009.37
100009.39
100009.41
100009.44
100009.49
100009.53
100009.61
100009.71
100009.9
100009.98
100010
100009.99
100009.94
100009.91
100009.85
100009.75
100010.34
100010.38
100010.34
100012.16
100012.14
100012.05
100011.94
100011.89
100011.79
100011.63
100011.54
100011.43
100011.31
100011.18
100011.02
100010.83
100010.62
100010.43
100010.31
100010.23
100010.17
100010.12
100010.07
100010.03
100009.99
100009.96
100009.93
100009.91
100009.89
100009.88
100009.87
100009.86
100009.85
100009.85
100009.84
100009.36
100009.37
100009.38
100009.4
100009.42
100009.45
100009.49
100009.53
100009.6
100009.7
100010.02
100010.14
100010.17
100010.11
100009.99
100009.8
100009.56
100010.05
100010.13
100010.14
100012.19
100012.07
100011.87
100011.78
100011.65
100011.53
100011.32
100011.2
100011.03
100010.8
100010.53
100010.3
100010.21
100010.19
100010.16
100010.13
100010.1
100010.07
100010.04
100010.02
100010
100009.98
100009.96
100009.95
100009.94
100009.92
100009.92
100009.91
100009.9
100009.35
100009.36
100009.37
100009.39
100009.42
100009.45
100009.5
100009.54
100009.52
100009.62
100010.23
100010.43
100010.44
100010.34
100010.2
100009.88
100009.59
100009.67
100009.63
100009.71
100011.98
100011.77
100011.59
100011.5
100011.34
100011.16
100010.75
100010.35
100010.04
100010.08
100010.17
100010.18
100010.18
100010.16
100010.13
100010.11
100010.1
100010.08
100010.06
100010.04
100010.01
100009.99
100009.97
100009.96
100009.95
100009.95
100009.32
100009.33
100009.35
100009.37
100009.4
100009.45
100009.53
100009.58
100009.62
100009.49
100010.79
100010.65
100010.34
100009.95
100009.02
100009.17
100009.37
100011.69
100011.48
100011.25
100010.91
100010.27
100009.45
100009.86
100010.27
100010.25
100010.27
100010.26
100010.24
100010.23
100010.21
100010.19
100010.16
100010.12
100010.08
100010.04
100010.01
100009.98
100009.97
100009.96
100009.26
100009.28
100009.3
100009.33
100009.38
100009.44
100009.57
100009.64
100009.7
100011.05
100010.84
100009.95
100008.6
100008.84
100011.05
100009.81
100008.49
100009.35
100010.23
100010.49
100010.48
100010.43
100010.41
100010.4
100010.4
100010.35
100010.31
100010.25
100010.17
100010.08
100010.02
100009.98
100009.96
100009.95
100009.18
100009.2
100009.22
100009.27
100009.35
100009.49
100009.54
100009.8
100009.46
100007.99
100008.04
100008.41
100004.03
100007.85
100010.12
100010.86
100010.7
100010.66
100010.7
100010.67
100010.65
100010.61
100010.55
100010.45
100010.29
100010.13
100010.02
100009.95
100009.93
100009.92
100009.08
100009.09
100009.13
100009.19
100009.3
100009.51
100009.73
100009.89
100007.06
100007.31
100007.62
100002.75
100005.65
100010.89
100011.01
100011.05
100011.01
100011.03
100010.93
100010.78
100010.46
100010.18
100009.97
100009.89
100009.86
100009.85
100008.94
100008.96
100009
100009.08
100009.29
100009.42
100009.79
100006.55
100006.75
100007.03
100002.79
100002.98
100004.39
100011.47
100011.53
100011.44
100011.21
100010.95
100010.36
100009.85
100009.76
100009.75
100009.75
100008.79
100008.8
100008.83
100008.9
100009.19
100009.5
100009.8
100005.05
100005.83
100006.2
100003.3
100003.36
100003.44
100011.78
100011.46
100009.92
100009.77
100009.53
100009.6
100009.62
100008.61
100008.61
100008.61
100008.71
100008.84
100009.39
100005.08
100005.47
100005.74
100003.69
100003.94
100006.75
100008.93
100009.28
100009.43
100009.47
100008.41
100008.39
100008.31
100008.47
100008.36
100008.8
100004.28
100004.89
100005.19
100003.89
100003.82
100003.89
100007.64
100008.69
100009.11
100009.28
100009.33
100008.21
100008.17
100008.03
100007.87
100007.29
100003.74
100004.29
100004.68
100004.89
100003.88
100003.9
100003.77
100007.79
100008.59
100009.01
100009.15
100009.21
100008.03
100007.98
100007.85
100007.69
100007.19
100006.25
100003.63
100004.2
100004.54
100004.67
100003.86
100003.92
100007.87
100008.55
100008.9
100009.04
100009.09
100007.87
100007.81
100007.69
100007.34
100007.13
100006.43
100002.85
100003.71
100004.02
100004.22
100003.73
100003.7
100003.19
100007.95
100008.57
100008.81
100008.92
100008.97
100007.72
100007.67
100007.57
100007.34
100007.1
100006.32
100003.13
100003.7
100003.68
100003.92
100003.43
100003.64
100002.99
100007.87
100008.48
100008.68
100008.79
100008.84
100007.59
100007.54
100007.44
100007.26
100007.02
100006.45
100006.03
100002.47
100003.44
100003.69
100003.47
100002.28
100001.8
100001.65
100001.62
100001.61
100001.59
100001.53
100001.47
100001.4
100001.33
100001.27
100001.25
100001.27
100001.34
100001.46
100001.64
100001.88
100002.15
100002.45
100002.77
100003.15
100003.58
100003.68
100003.12
100007.81
100008.36
100008.54
100008.65
100008.7
100007.46
100007.41
100007.3
100007.13
100006.72
100006.46
100005.84
100003.11
100003.65
100003.74
100003.93
100002.91
100002.42
100002.09
100001.95
100001.85
100001.68
100001.53
100001.4
100001.35
100001.28
100001.24
100001.25
100001.28
100001.33
100001.41
100001.53
100001.75
100002.04
100002.42
100002.91
100003.6
100003.85
100003.63
100003.19
100007.05
100007.69
100008.21
100008.39
100008.5
100008.54
100007.34
100007.29
100007.19
100007.03
100006.75
100006.46
100005.8
100002.29
100003.6
100003.88
100003.69
100003.81
100002.9
100002.31
100002.15
100002
100001.25
100001.21
100001.17
100001.41
100001.46
100002.38
100002.61
100002.98
100003.39
100003.37
100003.14
100006.86
100007.58
100008.05
100008.22
100008.33
100008.37
100007.22
100007.17
100007.08
100006.92
100006.68
100006.41
100005.57
100002.3
100003.24
100004.23
100004.41
100003.93
100003.56
100001.96
100002.64
100002.68
100002.07
100001.34
100001.25
100001.24
100001.21
100001.19
100001.17
100001.16
100001.16
100001.19
100001.26
100001.39
100001.57
100001.74
100001.9
100002.26
100002.58
100002.9
100003.08
100003.15
100003.06
100006.64
100007.42
100007.86
100008.03
100008.14
100008.19
100007.11
100007.06
100006.97
100006.8
100006.58
100006.29
100005.59
100004.67
100002.76
100003.72
100004.46
100004.64
100004.11
100002.91
100002.52
100002.46
100000.61
100000.79
100000.87
100000.94
100000.99
100001.04
100001.1
100001.17
100001.25
100001.39
100001.62
100001.78
100001.89
100002.23
100002.6
100002.82
100003.04
100002.97
100002.87
100006.39
100007.19
100007.65
100007.83
100007.94
100007.99
100007
100006.96
100006.86
100006.71
100006.47
100005.97
100005.47
100003.9
100002.63
100003.53
100004.07
100004.03
100004.4
100004.91
100004.18
100003.35
100001.85
99999.912
100000.22
100000.49
100000.56
100000.63
100000.72
100000.83
100000.96
100001.11
100001.25
100001.37
100001.49
100001.62
100001.9
100002.15
100002.44
100002.72
100002.8
100002.88
100002.8
100006.39
100006.96
100007.42
100007.6
100007.72
100007.77
100006.9
100006.85
100006.77
100006.63
100006.44
100006.12
100005.65
100004.97
100003.9
100003.5
100003.84
100003.99
100003.68
100003.25
100003.84
100000.41
100000.56
100000.62
100000.63
100000.67
100000.75
100000.86
100000.99
100001.12
100001.26
100001.38
100001.5
100001.61
100001.81
100002
100002.25
100002.57
100002.74
100002.87
100002.79
100006.3
100006.89
100007.22
100007.38
100007.5
100007.55
100006.79
100006.75
100006.68
100006.56
100006.41
100006.19
100005.91
100005.5
100005.11
100004.79
100004.91
100004.58
100004.13
100003.79
100004.25
99999.932
100000.69
100000.8
100000.77
100000.75
100000.76
100000.82
100000.9
100001.01
100001.13
100001.25
100001.38
100001.5
100001.63
100001.63
100001.78
100001.94
100002.39
100002.67
100002.89
100002.98
100002.86
100002.85
100006.15
100006.72
100006.98
100007.14
100007.26
100007.31
100006.69
100006.65
100006.58
100006.48
100006.34
100006.17
100005.96
100005.71
100005.41
100005.33
100005.63
100005.31
100004.51
100004.3
100004.86
100000.77
100001.06
100001.01
100000.92
100000.87
100000.86
100000.89
100000.95
100001.03
100001.14
100001.25
100001.38
100001.52
100001.66
100001.45
100001.56
100001.77
100002.13
100002.45
100002.7
100002.9
100002.85
100002.87
100003.06
100003.39
100004.12
100005.47
100006.04
100006.49
100006.72
100006.89
100007
100007.06
100006.58
100006.54
100006.48
100006.38
100006.26
100006.11
100005.92
100005.73
100005.55
100005.81
100005.45
100005.81
100005
100004.69
100005.34
100001.02
100001.31
100001.21
100001.09
100001.01
100000.97
100000.97
100001
100001.06
100001.14
100001.25
100001.37
100001.53
100001.68
100001.31
100001.46
100001.82
100002.11
100002.25
100002.77
100003.04
100003.47
100003.97
100004.52
100005.03
100005.48
100006.1
100005.61
100005.98
100006.25
100006.44
100006.61
100006.74
100006.79
100006.46
100006.42
100006.37
100006.28
100006.17
100006.03
100005.86
100005.68
100005.51
100005.42
100005.3
100005.22
100004.54
100004.94
100005.53
100001.31
100001.6
100001.46
100001.29
100001.17
100001.08
100001.05
100001.05
100001.08
100001.14
100001.22
100001.33
100001.49
100001.58
100001.55
100001.35
100001.57
100001.8
100002.05
100002.04
100004.7
100005.76
100006.2
100006.29
100006.36
100006.36
100006.22
100006.17
100005.93
100005.79
100005.94
100006.13
100006.31
100006.45
100006.52
100006.34
100006.31
100006.25
100006.17
100006.07
100005.94
100005.79
100005.6
100005.42
100005.28
100005.03
100004.87
100004.36
100004.29
100004.94
100001.72
100001.99
100001.78
100001.54
100001.35
100001.21
100001.13
100001.09
100001.09
100001.11
100001.16
100001.25
100001.43
100001.49
100001.67
100001.51
100001.71
100001.89
100001.97
100007.86
100008.44
100007.97
100006.75
100005.89
100005.92
100005.04
100005.48
100005.74
100005.99
100006.16
100006.25
100006.21
100006.18
100006.13
100006.06
100005.97
100005.85
100005.71
100005.54
100005.35
100005.09
100005.09
100004.8
100004.23
100003.97
100004.11
100002.32
100002.45
100002.17
100001.83
100001.55
100001.35
100001.21
100001.12
100001.07
100001.05
100001.06
100001.11
100001.22
100001.42
100001.65
100001.56
100001.74
100001.88
100008.35
100005.17
100004.21
100004.25
100004.91
100005.32
100005.66
100005.87
100005.98
100006.08
100006.05
100006.01
100005.95
100005.86
100005.76
100005.63
100005.48
100005.32
100005.18
100005.08
100004.74
100004.39
100004.12
100003.61
100002.72
100002.65
100002.62
100002.74
100003
100003.11
100002.48
100002.02
100001.67
100001.43
100001.26
100001.14
100001.04
100000.97
100000.93
100000.92
100000.95
100001.29
100001.59
100001.63
100001.76
100001.79
99995.573
100000.84
100003.23
100004.3
100004.93
100005.36
100005.62
100005.74
100005.95
100005.92
100005.88
100005.83
100005.76
100005.66
100005.55
100005.42
100005.29
100005.19
100005.12
100004.97
100004.72
100004.65
100004.57
100003.71
100003.57
100003.46
100003.42
100003.47
100003.45
100001.97
100001.55
100001.28
100001.13
100001.09
100001.05
100000.98
100000.87
100000.8
100000.75
100000.73
100001.08
100001.48
100001.58
100001.69
99997.893
100001.2
100002.93
100004
100004.69
100005.15
100005.42
100005.55
100005.8
100005.78
100005.75
100005.7
100005.64
100005.56
100005.46
100005.35
100005.23
100005.17
100005.09
100005.02
100004.97
100004.67
100004.64
100004.62
100004.21
100004.16
100003.99
100003.85
100003.96
100002.16
100001.52
100001.22
100001.03
100001.16
100001.13
100001.07
100000.82
100000.78
100000.73
100000.75
100000.97
100001.28
100001.48
100001.56
99998.736
99999.295
100001.79
100003.09
100003.98
100004.6
100005.03
100005.29
100005.42
100005.66
100005.64
100005.61
100005.57
100005.52
100005.45
100005.36
100005.27
100005.17
100005.12
100005.08
100005.24
100005.19
100005.42
100005.27
100005.11
100004.94
100005
100004.56
100004.12
100003.65
100002.05
100001.66
100001.25
100001.12
100001.24
100001.25
100001.35
100001.01
100000.68
100000.59
100000.72
100000.85
100001.18
100001.38
99999.591
99999.434
100000.93
100002.25
100003.27
100004.03
100004.58
100004.97
100005.21
100005.32
100005.51
100005.49
100005.47
100005.44
100005.39
100005.33
100005.26
100005.18
100005.1
100005.08
100005.17
100005.43
100006
100006.57
100006.44
100006.11
100005.74
100005.4
100004.76
100004.04
100003.19
100002.25
100001.66
100001.28
100001.16
100001.23
100001.24
100001.22
100000.92
100000.63
100000.56
100000.66
100000.73
100000.79
100001.12
99999.617
100000.48
100001.6
100002.6
100003.44
100004.09
100004.59
100004.93
100005.15
100005.26
100005.35
100005.34
100005.32
100005.29
100005.25
100005.2
100005.14
100005.07
100005
100004.97
100005.03
100005.34
100006.06
100007.67
100007.34
100006.79
100006.28
100005.79
100005.13
100004.32
100003.43
100002.52
100001.8
100001.34
100001.14
100001.11
100001.11
100001.05
100000.85
100000.54
99999.991
100000.19
100000.32
99999.936
99999.092
99999.79
99999.835
100001.12
100002.03
100002.88
100003.59
100004.16
100004.6
100004.91
100005.12
100005.22
100005.19
100005.18
100005.17
100005.15
100005.11
100005.06
100005
100004.93
100004.86
100004.8
100004.76
100004.81
100004.77
99999.74
100000
100000.12
99999.425
99999.079
99999.142
99999.127
99999.801
100000.58
100001.52
100002.34
100003.09
100003.72
100004.22
100004.62
100004.9
100005.09
100005.19
100005.03
100005.02
100005.01
100004.99
100004.96
100004.92
100004.86
100004.79
100004.72
100004.64
100004.57
100004.58
100004.41
99999.688
99999.703
100000.03
100000.08
99999.011
99999.101
99999.214
99999.287
99999.818
99999.924
100001.05
100001.85
100002.6
100003.26
100003.82
100004.27
100004.63
100004.9
100005.07
100005.16
100004.87
100004.86
100004.85
100004.83
100004.8
100004.76
100004.71
100004.64
100004.56
100004.48
100004.4
100004.36
100004.25
100004.04
99999.534
99999.822
100000.11
99999.151
99999.235
99999.341
99999.391
99999.429
99999.799
100000.51
100001.35
100002.11
100002.8
100003.4
100003.9
100004.31
100004.64
100004.89
100005.06
100005.14
100004.7
100004.69
100004.68
100004.67
100004.64
100004.6
100004.55
100004.48
100004.4
100004.3
100004.2
100004.04
100004.07
100003.87
99999.428
99999.562
99999.974
100000.04
99999.376
99999.335
99999.324
99999.306
99999.418
99999.607
99999.827
100000.89
100001.63
100002.33
100002.96
100003.5
100003.96
100004.34
100004.65
100004.88
100005.04
100005.12
100004.53
100004.52
100004.51
100004.5
100004.47
100004.43
100004.38
100004.31
100004.23
100004.12
100004.01
100003.87
100003.82
100003.59
99999.256
99999.288
99999.711
99999.997
99999.13
99998.938
99999.114
99999.267
99999.013
99999.378
99999.532
100000.38
100001.17
100001.87
100002.53
100003.1
100003.59
100004.01
100004.36
100004.65
100004.86
100005.01
100005.09
100004.36
100004.35
100004.34
100004.32
100004.3
100004.26
100004.2
100004.13
100004.04
100003.93
100003.79
100003.62
100003.51
100003.11
99999.038
99999.369
99999.764
99999.797
99998.749
99999.117
99999.176
99998.577
99997.78
99998.889
100000.05
100000.77
100001.46
100002.11
100002.69
100003.21
100003.66
100004.04
100004.37
100004.64
100004.84
100004.98
100005.05
100004.18
100004.18
100004.17
100004.15
100004.12
100004.08
100004.02
100003.94
100003.85
100003.72
100003.55
100003.34
100003.15
100002.54
100001.67
99998.867
99999.021
99999.432
99999.626
100000.04
100000.14
99999.886
100000.28
100000.66
100001.19
100001.76
100002.32
100002.84
100003.3
100003.71
100004.07
100004.37
100004.62
100004.81
100004.94
100005.01
100004.01
100004
100003.99
100003.97
100003.93
100003.89
100003.83
100003.75
100003.65
100003.51
100003.33
100003.08
100002.64
100002.24
100001.04
100000.17
99998.728
99999.056
99999.304
100000.91
100000.89
100001.12
100001.53
100002.01
100002.5
100002.96
100003.38
100003.75
100004.08
100004.36
100004.59
100004.77
100004.89
100004.96
100003.83
100003.82
100003.81
100003.78
100003.75
100003.7
100003.63
100003.55
100003.44
100003.31
100003.13
100002.9
100002.58
100002.12
100001.62
100000.71
100000.36
99998.513
99998.716
99998.942
99999.008
100001.04
100000.86
100001.07
100001.36
100001.76
100002.2
100002.64
100003.05
100003.44
100003.78
100004.08
100004.34
100004.56
100004.72
100004.84
100004.9
100003.65
100003.64
100003.63
100003.6
100003.56
100003.5
100003.43
100003.35
100003.24
100003.1
100002.93
100002.73
100002.46
100002.12
100001.68
100001.17
100000.71
100000.13
99999.884
99998.38
99998.482
99998.627
99998.738
100000.85
100000.95
100001.19
100001.53
100001.93
100002.34
100002.75
100003.13
100003.48
100003.8
100004.08
100004.32
100004.51
100004.66
100004.77
100004.82
100003.47
100003.46
100003.44
100003.41
100003.37
100003.31
100003.23
100003.14
100003.03
100002.89
100002.72
100002.52
100002.28
100001.99
100001.65
100001.24
100000.75
100000.37
99999.712
99999.459
99998.371
99998.417
99998.388
99998.426
100000.76
100000.78
100001.1
100001.36
100001.71
100002.09
100002.47
100002.84
100003.19
100003.51
100003.8
100004.06
100004.28
100004.46
100004.59
100004.69
100004.74
100003.3
100003.29
100003.26
100003.23
100003.18
100003.11
100003.03
100002.93
100002.81
100002.67
100002.5
100002.31
100002.07
100001.8
100001.49
100001.13
100000.71
100000.21
99999.76
99999.489
99999.135
99998.958
99998.394
99998.306
99998.271
99998.134
100000.84
100000.81
100000.97
100001.23
100001.53
100001.87
100002.22
100002.58
100002.92
100003.23
100003.53
100003.79
100004.02
100004.22
100004.39
100004.51
100004.6
100004.64
100003.12
100003.11
100003.08
100003.04
100002.99
100002.92
100002.83
100002.73
100002.6
100002.45
100002.28
100002.08
100001.85
100001.59
100001.29
100000.96
100000.59
100000.19
99999.782
99999.429
99999.216
99998.877
99998.691
99998.503
99998.241
99998.117
99997.682
99997.368
100000.87
100000.97
100001.14
100001.39
100001.69
100002.01
100002.34
100002.67
100002.98
100003.27
100003.53
100003.77
100003.98
100004.16
100004.3
100004.42
100004.49
100004.53
100002.94
100002.93
100002.9
100002.86
100002.8
100002.73
100002.63
100002.52
100002.39
100002.23
100002.06
100001.85
100001.62
100001.37
100001.08
100000.77
100000.43
100000.08
99999.715
99999.394
99999.092
99998.878
99998.71
99998.336
99998.15
99997.944
99997.777
99997.499
99997.434
100000.88
100000.87
100001.11
100001.31
100001.56
100001.85
100002.15
100002.45
100002.75
100003.03
100003.28
100003.52
100003.73
100003.92
100004.08
100004.21
100004.31
100004.37
100004.41
100002.77
100002.76
100002.73
100002.68
100002.62
100002.54
100002.44
100002.32
100002.18
100002.02
100001.84
100001.63
100001.4
100001.14
100000.87
100000.57
100000.25
99999.926
99999.607
99999.321
99999.052
99998.814
99998.547
99998.298
99998.089
99997.897
99997.696
99997.551
99997.45
99997.401
99997.392
100000.92
100001.06
100001.23
100001.46
100001.72
100001.99
100002.27
100002.55
100002.81
100003.06
100003.29
100003.5
100003.68
100003.85
100003.99
100004.1
100004.18
100004.24
100004.27
100002.6
100002.59
100002.55
100002.5
100002.44
100002.35
100002.25
100002.13
100001.98
100001.82
100001.63
100001.42
100001.18
100000.93
100000.65
100000.36
100000.07
99999.768
99999.483
99999.218
99998.965
99998.726
99998.484
99998.247
99998.034
99997.85
99997.688
99997.576
99997.517
99997.461
99997.468
99997.517
99997.59
100000.85
100000.91
100001.19
100001.38
100001.61
100001.87
100002.12
100002.38
100002.62
100002.86
100003.07
100003.27
100003.46
100003.62
100003.76
100003.88
100003.98
100004.05
100004.09
100004.12
100002.43
100002.42
100002.38
100002.33
100002.27
100002.18
100002.07
100001.94
100001.8
100001.63
100001.43
100001.22
100000.98
100000.73
100000.46
100000.18
99999.892
99999.614
99999.344
99999.088
99998.846
99998.615
99998.386
99998.16
99997.956
99997.786
99997.654
99997.577
99997.559
99997.588
99997.632
99997.641
99997.724
99997.825
100000.8
100001.07
100001.29
100001.52
100001.76
100002
100002.23
100002.46
100002.68
100002.88
100003.07
100003.24
100003.4
100003.53
100003.65
100003.75
100003.83
100003.89
100003.93
100003.95
100002.27
100002.25
100002.22
100002.17
100002.1
100002.01
100001.9
100001.77
100001.62
100001.45
100001.25
100001.04
100000.8
100000.54
100000.28
100000
99999.729
99999.458
99999.195
99998.944
99998.705
99998.477
99998.257
99998.046
99997.857
99997.703
99997.6
99997.561
99997.587
99997.662
99997.77
99997.903
99997.998
99998.012
99998.131
99998.268
100000.35
100000.68
100001.18
100001.41
100001.65
100001.89
100002.11
100002.33
100002.53
100002.71
100002.89
100003.04
100003.19
100003.32
100003.43
100003.53
100003.61
100003.68
100003.72
100003.75
100003.77
100002.11
100002.09
100002.06
100002
100001.93
100001.85
100001.74
100001.61
100001.46
100001.28
100001.09
100000.87
100000.63
100000.38
100000.12
99999.847
99999.574
99999.304
99999.042
99998.792
99998.553
99998.324
99998.107
99997.907
99997.733
99997.602
99997.532
99997.536
99997.606
99997.731
99997.895
99998.08
99998.264
99998.448
99998.544
99998.472
99998.234
99998.053
100000.08
100000.92
100001.26
100001.54
100001.78
100002
100002.2
100002.39
100002.56
100002.72
100002.86
100002.99
100003.11
100003.21
100003.31
100003.38
100003.45
100003.5
100003.53
100003.56
100003.57
100001.95
100001.93
100001.9
100001.85
100001.78
100001.69
100001.58
100001.46
100001.31
100001.13
100000.94
100000.72
100000.49
100000.24
99999.977
99999.706
99999.431
99999.16
99998.894
99998.64
99998.395
99998.163
99997.948
99997.755
99997.597
99997.493
99997.461
99997.507
99997.624
99997.802
99998.023
99998.267
99998.515
99998.786
99999.083
99999.379
99999.352
99999.815
100000.76
100001.11
100001.41
100001.66
100001.88
100002.08
100002.26
100002.42
100002.57
100002.69
100002.81
100002.91
100003
100003.09
100003.16
100003.21
100003.26
100003.3
100003.32
100003.34
100003.35
100001.79
100001.77
100001.74
100001.69
100001.62
100001.54
100001.44
100001.31
100001.17
100001
100000.81
100000.6
100000.37
100000.12
99999.859
99999.586
99999.308
99999.031
99998.759
99998.495
99998.242
99998.004
99997.787
99997.6
99997.459
99997.385
99997.392
99997.483
99997.647
99997.876
99998.153
99998.451
99998.751
99999.067
99999.44
99999.851
100000.3
100000.65
100001.01
100001.29
100001.54
100001.76
100001.96
100002.13
100002.28
100002.42
100002.53
100002.63
100002.72
100002.8
100002.87
100002.93
100002.98
100003.02
100003.05
100003.08
100003.09
100003.1
100003.1
100001.63
100001.61
100001.58
100001.54
100001.48
100001.4
100001.3
100001.18
100001.05
100000.89
100000.7
100000.5
100000.27
100000.03
99999.768
99999.493
99999.212
99998.928
99998.646
99998.37
99998.104
99997.857
99997.636
99997.455
99997.334
99997.292
99997.338
99997.47
99997.68
99997.959
99998.288
99998.637
99998.983
99999.328
99999.711
100000.13
100000.56
100000.88
100001.16
100001.4
100001.62
100001.81
100001.98
100002.13
100002.26
100002.37
100002.46
100002.53
100002.6
100002.65
100002.7
100002.74
100002.77
100002.79
100002.81
100002.83
100002.83
100002.84
100002.84
100001.46
100001.45
100001.42
100001.38
100001.33
100001.26
100001.17
100001.06
100000.93
100000.79
100000.61
100000.42
100000.21
99999.968
99999.71
99999.437
99999.153
99998.862
99998.569
99998.278
99997.999
99997.74
99997.515
99997.34
99997.24
99997.228
99997.312
99997.485
99997.738
99998.061
99998.435
99998.829
99999.21
99999.569
99999.933
100000.32
100000.68
100000.98
100001.23
100001.45
100001.64
100001.81
100001.96
100002.08
100002.18
100002.26
100002.33
100002.38
100002.42
100002.46
100002.48
100002.5
100002.52
100002.53
100002.54
100002.55
100002.55
100002.54
100002.54
100001.29
100001.28
100001.26
100001.22
100001.17
100001.11
100001.04
100000.94
100000.83
100000.7
100000.54
100000.37
100000.17
99999.941
99999.695
99999.429
99999.147
99998.853
99998.55
99998.246
99997.952
99997.682
99997.452
99997.285
99997.203
99997.22
99997.338
99997.55
99997.842
99998.203
99998.611
99999.033
99999.432
99999.79
100000.12
100000.46
100000.77
100001.02
100001.24
100001.44
100001.6
100001.75
100001.87
100001.97
100002.04
100002.1
100002.15
100002.18
100002.2
100002.21
100002.22
100002.23
100002.23
100002.24
100002.23
100002.23
100002.23
100002.22
100002.22
100001.1
100001.09
100001.08
100001.05
100001.01
100000.96
100000.9
100000.82
100000.72
100000.61
100000.48
100000.33
100000.15
99999.952
99999.727
99999.479
99999.211
99998.924
99998.622
99998.31
99998.003
99997.727
99997.493
99997.332
99997.267
99997.306
99997.456
99997.703
99998.026
99998.411
99998.831
99999.258
99999.647
99999.981
100000.27
100000.55
100000.8
100001.02
100001.2
100001.36
100001.49
100001.61
100001.7
100001.77
100001.83
100001.86
100001.88
100001.9
100001.9
100001.9
100001.9
100001.89
100001.89
100001.88
100001.88
100001.87
100001.86
100001.85
100001.84
100000.89
100000.88
100000.87
100000.85
100000.82
100000.78
100000.74
100000.68
100000.61
100000.52
100000.42
100000.3
100000.16
99999.999
99999.811
99999.6
99999.366
99999.108
99998.828
99998.527
99998.214
99997.945
99997.712
99997.561
99997.515
99997.569
99997.737
99998.003
99998.336
99998.721
99999.117
99999.505
99999.85
100000.13
100000.37
100000.59
100000.78
100000.94
100001.08
100001.2
100001.3
100001.38
100001.45
100001.49
100001.52
100001.54
100001.55
100001.55
100001.54
100001.53
100001.52
100001.5
100001.49
100001.48
100001.47
100001.46
100001.45
100001.44
100001.43
100000.61
100000.6
100000.6
100000.59
100000.57
100000.55
100000.52
100000.48
100000.44
100000.39
100000.32
100000.25
100000.15
100000.04
99999.917
99999.769
99999.601
99999.414
99999.206
99998.968
99998.663
99998.448
99998.244
99998.118
99998.093
99998.144
99998.294
99998.537
99998.828
99999.171
99999.479
99999.763
100000.01
100000.21
100000.36
100000.5
100000.62
100000.71
100000.79
100000.86
100000.92
100000.97
100001
100001.02
100001.04
100001.04
100001.03
100001.02
100001.01
100001
100000.99
100000.98
100000.97
100000.96
100000.95
100000.94
100000.93
100000.92
100000.92
100000.3
100000.3
100000.3
100000.29
100000.29
100000.28
100000.27
100000.26
100000.24
100000.22
100000.2
100000.17
100000.14
100000.09
100000.04
99999.979
99999.909
99999.833
99999.754
99999.652