/*--------------------------------*- C++ -*----------------------------------*\
  =========                 |
  \\      /  F ield         | OpenFOAM: The Open Source CFD Toolbox
   \\    /   O peration     | Website:  https://openfoam.org
    \\  /    A nd           | Version:  8
     \\/     M anipulation  |
\*---------------------------------------------------------------------------*/
FoamFile
{
    version     2.0;
    format      ascii;
    class       volScalarField;
    location    "10800/air";
    object      rho;
}
// * * * * * * * * * * * * * * * * * * * * * * * * * * * * * * * * * * * * * //

dimensions      [1 -3 0 0 0 0 0];

internalField   nonuniform List<scalar> 
167754
(
1.1761956
1.1761844
1.1761846
1.1761859
1.1761882
1.1761908
1.1761903
1.1761906
1.1761909
1.1761906
1.1761902
1.1761902
1.1761904
1.1761904
1.1761903
1.1761906
1.176191
1.1761922
1.176193
1.1761926
1.1761949
1.1761885
1.1761925
1.1761913
1.1761913
1.1761895
1.1761897
1.1761901
1.1761905
1.1761906
1.1761909
1.1761912
1.1761916
1.1761914
1.1761916
1.1761915
1.1761914
1.1761911
1.1761909
1.1761904
1.1761902
1.1761901
1.1761902
1.1761906
1.1761909
1.1761911
1.176191
1.1761907
1.1761905
1.1761887
1.1761853
1.1761822
1.1761788
1.1761759
1.1761994
1.1762016
1.1762024
1.1762027
1.1762025
1.176195
1.1762059
1.1762052
1.1762036
1.1762012
1.1761977
1.1761982
1.1761977
1.1761976
1.1761978
1.1761982
1.176198
1.1761979
1.1761977
1.1761978
1.1761976
1.1761972
1.1761955
1.1761944
1.176198
1.176202
1.1761998
1.1761946
1.1761966
1.1761964
1.1761987
1.1761989
1.1761986
1.1761982
1.1761979
1.1761976
1.1761972
1.1761968
1.176197
1.1761967
1.1761968
1.1761967
1.1761971
1.1761973
1.1761975
1.1761976
1.1761977
1.1761976
1.1761974
1.1761972
1.1761972
1.1761974
1.1761978
1.1761982
1.1762009
1.1762047
1.1762089
1.1762136
1.1762189
1.176202
1.1762037
1.1762052
1.1762058
1.1762052
1.1762286
1.1762129
1.1762115
1.1762092
1.1762068
1.1762058
1.1762058
1.1762065
1.1762068
1.1762059
1.1762055
1.1762049
1.1762047
1.1762043
1.1762038
1.1762036
1.1762045
1.1762097
1.1762159
1.1762095
1.1761995
1.1762021
1.1762123
1.176208
1.1762112
1.1762055
1.1762062
1.1762068
1.1762084
1.1762089
1.1762085
1.1762087
1.1762085
1.1762079
1.1762071
1.1762064
1.1762056
1.1762048
1.1762047
1.1762043
1.1762044
1.1762045
1.176205
1.1762056
1.1762061
1.1762064
1.1762066
1.1762071
1.1762078
1.1762103
1.1762172
1.1762279
1.1762396
1.1762517
1.1762795
1.1762893
1.1762951
1.1762972
1.1762964
1.1762647
1.1762763
1.1762713
1.1762609
1.1762475
1.1762356
1.1762263
1.1762198
1.1762173
1.1762169
1.1762164
1.176216
1.1762153
1.176215
1.1762151
1.1762167
1.1762192
1.1762202
1.1762105
1.176209
1.1762689
1.1762713
1.1762016
1.1762154
1.176207
1.1762204
1.1762201
1.1762205
1.1762178
1.1762179
1.1762202
1.1762172
1.1762168
1.1762164
1.1762165
1.1762162
1.1762163
1.1762162
1.1762159
1.1762155
1.1762147
1.1762142
1.176214
1.176214
1.1762145
1.1762157
1.1762173
1.176221
1.1762313
1.1762507
1.1762784
1.1763082
1.1763416
1.1763724
1.1763932
1.176412
1.1764241
1.1764287
1.1764268
1.1763769
1.1763716
1.17636
1.1763398
1.1763142
1.1762871
1.176264
1.1762476
1.1762368
1.1762302
1.1762276
1.1762255
1.1762247
1.1762242
1.1762243
1.1762265
1.176227
1.1762185
1.1762801
1.1762847
1.1762804
1.1762736
1.1762713
1.17623
1.1762762
1.1762375
1.1762409
1.1762416
1.17625
1.1762484
1.1762413
1.1762417
1.1762356
1.1762316
1.176229
1.176227
1.1762254
1.1762247
1.1762244
1.1762244
1.1762246
1.1762244
1.1762244
1.1762245
1.1762251
1.1762271
1.1762329
1.1762476
1.176278
1.1763256
1.1763823
1.1764399
1.1764898
1.1765308
1.1765614
1.1765837
1.1765975
1.1766031
1.1766021
1.1765248
1.1765203
1.176505
1.176478
1.1764409
1.1763973
1.1763512
1.1763089
1.1762781
1.1762599
1.1762461
1.1762422
1.1762379
1.1762384
1.1762416
1.1762475
1.1762537
1.1762802
1.1762655
1.1761486
1.1757837
1.1756189
1.1762929
1.1763164
1.1763279
1.1763278
1.1763276
1.1763251
1.1763213
1.176312
1.1763015
1.1762922
1.1762804
1.1762696
1.1762583
1.1762482
1.1762431
1.1762395
1.1762364
1.1762338
1.1762324
1.1762322
1.1762324
1.1762333
1.1762356
1.1762419
1.1762592
1.1762984
1.1763647
1.1764429
1.1765196
1.1765874
1.1766427
1.1766857
1.1767174
1.1767395
1.1767529
1.1767587
1.1767586
1.1766704
1.1766652
1.1766489
1.17662
1.1765791
1.1765279
1.1764699
1.1764109
1.1763571
1.1763116
1.1762932
1.1762737
1.1762712
1.1762697
1.1762807
1.1762874
1.1762853
1.1760678
1.1757601
1.1732012
1.1759561
1.1763448
1.1762093
1.1755038
1.176136
1.1763555
1.1763747
1.1763827
1.1763743
1.1763679
1.1763152
1.1763184
1.1763156
1.1763128
1.1763072
1.1762947
1.1762803
1.1762662
1.1762545
1.1762472
1.1762432
1.1762413
1.1762423
1.1762477
1.1762644
1.1763024
1.1763748
1.1764701
1.1765667
1.1766516
1.1767212
1.1767752
1.1768159
1.1768454
1.1768656
1.176878
1.1768837
1.1768844
1.1767928
1.176787
1.176771
1.1767431
1.1767029
1.1766509
1.1765887
1.1765205
1.176455
1.1763889
1.1763593
1.1763432
1.1763376
1.1763407
1.1763468
1.1763228
1.1758651
1.1730657
1.1762575
1.1762622
1.1755624
1.1750739
1.1761388
1.1762645
1.1763139
1.1763356
1.1763502
1.1762798
1.1762993
1.176313
1.1763163
1.1763182
1.176315
1.1763059
1.1762908
1.1762716
1.176259
1.1762588
1.1762666
1.1762949
1.176361
1.1764623
1.1765747
1.176678
1.1767633
1.1768298
1.17688
1.176917
1.1769435
1.1769617
1.176973
1.1769784
1.1769797
1.1768862
1.1768802
1.1768649
1.1768389
1.1768013
1.1767519
1.1766923
1.176629
1.1765461
1.176498
1.176468
1.1764466
1.1764215
1.1764024
1.1763496
1.1761979
1.1752949
1.176148
1.1758563
1.1715971
1.1747846
1.1760183
1.1761686
1.1762489
1.176298
1.1763271
1.1762719
1.1762978
1.1763125
1.1763165
1.1763202
1.1763157
1.1763031
1.1762975
1.1763071
1.1763416
1.1764217
1.1765422
1.1766641
1.1767683
1.1768505
1.1769125
1.1769582
1.1769916
1.1770154
1.1770318
1.1770421
1.1770475
1.1770492
1.1769518
1.1769454
1.1769308
1.1769065
1.1768717
1.176826
1.1767712
1.176704
1.1765987
1.1764304
1.1759407
1.176486
1.1765194
1.1764797
1.1763891
1.1760279
1.1735432
1.1748584
1.175707
1.1749198
1.1751555
1.1759955
1.1761264
1.1762363
1.1762951
1.1763217
1.1762747
1.1763034
1.1763158
1.1763299
1.1763331
1.1763552
1.1764096
1.1765006
1.1766177
1.1767362
1.1768365
1.1769143
1.176972
1.1770139
1.1770441
1.1770657
1.1770807
1.1770904
1.1770957
1.177098
1.1769923
1.1769856
1.1769712
1.176948
1.1769153
1.1768723
1.176813
1.1767663
1.1764442
1.1724634
1.1760595
1.1764764
1.1763445
1.1758139
1.1750708
1.174807
1.1702833
1.1750825
1.1759949
1.1761143
1.1762107
1.1762835
1.176287
1.1763188
1.1763941
1.1763917
1.1764486
1.1765499
1.176676
1.1767921
1.1768875
1.1769598
1.1770131
1.1770516
1.1770792
1.177099
1.1771129
1.1771221
1.1771276
1.1771303
1.177012
1.1770046
1.1769896
1.1769657
1.176931
1.1768806
1.1768717
1.1766866
1.1757791
1.1745881
1.1761941
1.1758242
1.1742659
1.1739279
1.1746989
1.1757941
1.1762075
1.1763471
1.1763903
1.1764533
1.1765204
1.1766001
1.1767213
1.1768307
1.1769209
1.17699
1.1770402
1.1770761
1.1771011
1.1771188
1.1771313
1.1771401
1.1771458
1.177149
1.1770107
1.1770027
1.176987
1.1769618
1.1769241
1.1768617
1.1768318
1.1762392
1.1753852
1.1728711
1.1731057
1.1708558
1.1751909
1.1762941
1.1760267
1.176207
1.1764093
1.1765834
1.1767596
1.1768887
1.1769774
1.1770171
1.17706
1.1770904
1.1771129
1.1771292
1.177142
1.1771502
1.1771559
1.1771595
1.1769975
1.1769886
1.1769713
1.1769432
1.1768964
1.1769021
1.1766567
1.175221
1.1740545
1.1721882
1.1719972
1.1751966
1.1762162
1.1755267
1.1762622
1.1767522
1.1769568
1.1770647
1.177124
1.1771546
1.1771238
1.1771324
1.1771418
1.1771496
1.1771554
1.1771593
1.1769663
1.1769559
1.1769355
1.1768995
1.1768257
1.1768138
1.1762965
1.1722155
1.1712183
1.1694809
1.173652
1.1756294
1.1758065
1.1761185
1.1766546
1.1769831
1.1771215
1.1771723
1.17719
1.1771341
1.1771423
1.1771487
1.1771532
1.1769174
1.1769056
1.1768821
1.176839
1.1768551
1.1765752
1.1739328
1.1713749
1.1710739
1.1703379
1.1748032
1.1756595
1.1743026
1.1762344
1.176816
1.1771246
1.1771803
1.1771247
1.1771326
1.1771382
1.1768529
1.1768386
1.1768067
1.1767277
1.1767295
1.1760058
1.1707296
1.1701897
1.1688466
1.1752688
1.1754435
1.1762999
1.1771177
1.1770913
1.1771061
1.1771142
1.176772
1.1767542
1.1767119
1.1767471
1.1764706
1.1740571
1.1700354
1.1701237
1.1692586
1.1736036
1.1751305
1.1746783
1.1764481
1.1770514
1.1770429
1.1770696
1.1770821
1.176674
1.1766513
1.1765921
1.1766195
1.1762403
1.1689586
1.1700134
1.1695412
1.1683109
1.174381
1.1746866
1.1729795
1.1766524
1.1769842
1.1769829
1.1770234
1.1770417
1.1765596
1.1765313
1.1764583
1.1764734
1.1761781
1.1733414
1.1697867
1.1696512
1.1688901
1.1654191
1.1743929
1.1740525
1.1766981
1.1768304
1.1769189
1.1769692
1.1769934
1.1764305
1.1763984
1.1763228
1.1761718
1.1760829
1.1752258
1.168599
1.1697458
1.1692518
1.1680877
1.1721973
1.1737635
1.172346
1.1765919
1.1767369
1.1768466
1.1769077
1.1769377
1.176289
1.1762547
1.1761761
1.1760184
1.1759525
1.1752538
1.169683
1.1695397
1.1688525
1.1666727
1.172823
1.1726096
1.1706042
1.1764988
1.1766386
1.1767671
1.1768392
1.1768751
1.1761374
1.1761018
1.1760207
1.1758612
1.1758001
1.175325
1.171861
1.1688836
1.1697551
1.1693578
1.1687138
1.1676696
1.1664762
1.1655021
1.1647872
1.1642022
1.1637041
1.1632567
1.162865
1.1624984
1.1620427
1.1613635
1.1608131
1.1614164
1.1624713
1.1637925
1.165248
1.1667373
1.1681681
1.1694379
1.1707711
1.1716976
1.1722032
1.1713873
1.1695382
1.1763784
1.1765349
1.1766808
1.176764
1.1768058
1.175978
1.175942
1.1758606
1.1757116
1.1754577
1.1752682
1.1732703
1.1698102
1.1697321
1.1691904
1.1686426
1.1676848
1.1667585
1.1656854
1.1649034
1.1642616
1.1637724
1.1633321
1.1630313
1.1627371
1.1623311
1.1617794
1.1615148
1.161866
1.1624203
1.1631863
1.1637735
1.1649486
1.1667952
1.1687278
1.1703579
1.1712566
1.171165
1.1705342
1.1689753
1.1752782
1.1762654
1.1764252
1.1765878
1.1766822
1.17673
1.1758127
1.175777
1.1756964
1.1755532
1.1753052
1.1751587
1.1743935
1.1693676
1.1699443
1.1696153
1.1689689
1.1682603
1.1675537
1.1666558
1.1657597
1.1648622
1.1626894
1.1620627
1.1613163
1.1626178
1.1618008
1.166511
1.1686437
1.1701301
1.1704717
1.1699767
1.1684991
1.1752614
1.1761349
1.1763098
1.1764884
1.176594
1.1766478
1.1756432
1.1756083
1.1755292
1.1753905
1.1751497
1.1750239
1.1743249
1.1687203
1.1700883
1.169965
1.1695346
1.1689452
1.1668963
1.1664988
1.1666401
1.165264
1.1644789
1.1638164
1.1633869
1.1623916
1.1616005
1.1612852
1.1612387
1.1610893
1.1616983
1.1623141
1.1630481
1.1636747
1.1636606
1.1619751
1.1638718
1.1660117
1.1680153
1.1693661
1.1694734
1.1694563
1.1678842
1.1755611
1.1759956
1.1761899
1.1763831
1.1764997
1.1765593
1.1754711
1.1754372
1.17536
1.1752253
1.1749945
1.1748779
1.1743779
1.1715365
1.1701103
1.1701705
1.1697281
1.1691718
1.1687077
1.1680375
1.1671972
1.1642891
1.1624698
1.1618237
1.1609604
1.1602553
1.1601468
1.160349
1.1609864
1.1620548
1.1627206
1.1639601
1.1641709
1.1619778
1.1636496
1.1653334
1.1669574
1.168348
1.1691706
1.1688718
1.1653378
1.1754737
1.1758604
1.1760632
1.1762717
1.1763992
1.1764646
1.1752979
1.175265
1.1751902
1.1750613
1.1748544
1.1745438
1.1743796
1.1734949
1.1692232
1.170363
1.1699183
1.1692584
1.1685291
1.168076
1.1679296
1.1675404
1.166676
1.1645984
1.1636348
1.1630645
1.1626813
1.1624598
1.1626097
1.1632108
1.1638428
1.164254
1.1644565
1.1645754
1.1646369
1.1645112
1.1632113
1.1646304
1.1662064
1.1677489
1.1684161
1.1682696
1.1632197
1.1753546
1.1756523
1.1759437
1.1761566
1.1762934
1.1763642
1.1751242
1.1750925
1.1750205
1.1748978
1.1747081
1.1744327
1.1740404
1.1737023
1.1728729
1.1713712
1.1705323
1.1704707
1.1699528
1.1691128
1.1680466
1.1656036
1.1653047
1.164992
1.1647414
1.16466
1.1647069
1.1648332
1.1649615
1.1650489
1.1650959
1.1651092
1.1650664
1.1648208
1.1629982
1.1638635
1.1643197
1.1662687
1.1675908
1.1676479
1.1626101
1.1752034
1.1755084
1.1758176
1.1760376
1.1761824
1.1762581
1.1749509
1.1749205
1.1748518
1.1747353
1.1745591
1.1743088
1.1739647
1.1734793
1.1730695
1.1721896
1.1711847
1.1706681
1.1701443
1.169392
1.168213
1.1645978
1.1660755
1.1659999
1.1657648
1.1655688
1.1654584
1.1654226
1.1654297
1.1654486
1.1654583
1.1654499
1.1654333
1.165383
1.1651084
1.1627802
1.1631466
1.1628536
1.164311
1.1667238
1.1668275
1.1643479
1.1640381
1.1634518
1.1750259
1.1753591
1.1756857
1.1759145
1.1760669
1.176147
1.1747784
1.1747496
1.1746845
1.1745744
1.1744099
1.1741791
1.1738685
1.1734562
1.1729025
1.1721543
1.1715115
1.17094
1.1704482
1.1698057
1.1686971
1.1662949
1.1665584
1.1664253
1.1662456
1.1661132
1.1659861
1.1659065
1.1658541
1.1658135
1.1657528
1.1657077
1.1656531
1.1656178
1.1653282
1.1625155
1.1627832
1.1623556
1.1631273
1.1654906
1.1645899
1.1637368
1.1642275
1.164907
1.1655285
1.1658066
1.1652559
1.1738034
1.174851
1.1752042
1.1755485
1.1757874
1.1759471
1.1760311
1.1746073
1.1745802
1.1745188
1.1744153
1.1742615
1.1740474
1.1737623
1.1733933
1.1728988
1.172374
1.1717566
1.1711656
1.1706232
1.1700894
1.1690701
1.1665936
1.1668258
1.1667425
1.1666056
1.1664702
1.1663506
1.1662498
1.1661636
1.1660856
1.1660093
1.1659327
1.1658527
1.1658078
1.1655426
1.1623093
1.1630315
1.1628152
1.1626699
1.1632247
1.1627099
1.1639184
1.1648391
1.1658767
1.1665091
1.1670688
1.1672869
1.1666681
1.1736488
1.1746558
1.1750475
1.1754085
1.1756575
1.1758237
1.1759111
1.1744376
1.1744122
1.1743547
1.1742577
1.174114
1.1739149
1.1736512
1.1733106
1.1728493
1.1724481
1.171738
1.1709967
1.170526
1.1701286
1.1693155
1.1667801
1.1670465
1.1669915
1.1668818
1.166762
1.166643
1.1665289
1.1664203
1.1663154
1.1662105
1.1661049
1.1659948
1.165934
1.1657867
1.1642516
1.1631842
1.1639134
1.163632
1.1626992
1.1578071
1.1646397
1.165826
1.1665387
1.1673865
1.1678949
1.168249
1.1681983
1.1667966
1.1737958
1.1744677
1.1748907
1.1752661
1.1755251
1.1756971
1.1757871
1.1742691
1.1742455
1.1741918
1.1741011
1.173967
1.1737817
1.173537
1.1732211
1.1727746
1.1724837
1.1717398
1.1709125
1.1702215
1.1699732
1.1692564
1.1669171
1.1672344
1.167191
1.1670944
1.1669762
1.1668498
1.1667198
1.1665892
1.1664581
1.1663221
1.1661853
1.1660436
1.1659803
1.165814
1.1655415
1.1643966
1.1641932
1.1640896
1.1625431
1.1663187
1.1672981
1.1678283
1.1685643
1.168823
1.1723168
1.1742425
1.1747484
1.1751251
1.1753912
1.1755678
1.1756595
1.1741017
1.1740796
1.1740296
1.1739449
1.1738198
1.1736472
1.1734196
1.1731264
1.1727286
1.1721685
1.1717636
1.1709664
1.1701777
1.1698526
1.1692602
1.1671109
1.1673135
1.1673188
1.1672125
1.1670792
1.1669313
1.1667747
1.1666145
1.1664505
1.1662843
1.1661241
1.1659777
1.1658495
1.165721
1.1655144
1.1643013
1.1641645
1.1634886
1.1674075
1.1682671
1.170384
1.1739545
1.1745925
1.1749845
1.1752564
1.175436
1.1755284
1.1739344
1.1739138
1.1738674
1.1737883
1.1736715
1.1735106
1.1732987
1.1730258
1.1726659
1.1721504
1.1718127
1.1708775
1.1701099
1.1697984
1.1695038
1.1690565
1.1686649
1.1682815
1.1679722
1.1677399
1.1675873
1.167368
1.1670971
1.1668585
1.1666247
1.1663832
1.1661225
1.1658334
1.165541
1.1653371
1.1653895
1.165489
1.1653928
1.1653545
1.1647302
1.1639475
1.1620148
1.1678786
1.1704701
1.1737683
1.1744483
1.1748465
1.1751208
1.1753019
1.1753937
1.1737673
1.173748
1.1737045
1.1736306
1.173521
1.1733708
1.1731738
1.1729191
1.1725879
1.1721226
1.1717901
1.1709548
1.1701315
1.1696653
1.1694584
1.1691256
1.1689185
1.1686678
1.1684055
1.1681569
1.167918
1.1671702
1.1660343
1.1650794
1.1644006
1.16387
1.1633202
1.1627141
1.1621816
1.1616065
1.1614345
1.1618785
1.1642097
1.1646699
1.1644165
1.1630756
1.1692821
1.1722765
1.1737061
1.1743234
1.1747116
1.1749845
1.1751653
1.1752557
1.1735965
1.1735783
1.1735376
1.1734685
1.1733663
1.1732259
1.1730413
1.1728032
1.1725064
1.1720375
1.1717857
1.1710315
1.1702282
1.1693667
1.1690786
1.1688164
1.1687859
1.1686887
1.1684792
1.1682546
1.1680842
1.1670985
1.166146
1.1654734
1.1653398
1.1648501
1.1643956
1.1643051
1.1629262
1.1619333
1.1612166
1.1622132
1.1633955
1.1633479
1.1623654
1.1602243
1.1697909
1.1704708
1.1726111
1.1736975
1.174215
1.1745818
1.1748483
1.1750266
1.1751147
1.1734045
1.1733873
1.1733492
1.1732845
1.1732162
1.1730847
1.1729118
1.1726616
1.1723795
1.171994
1.1714658
1.1711107
1.1702593
1.1694869
1.1689561
1.1686151
1.1684888
1.1684893
1.1683372
1.1680779
1.1678843
1.1667885
1.1662266
1.1660241
1.1663568
1.1658752
1.1654391
1.1651453
1.1640574
1.1634429
1.1629669
1.1624192
1.1627121
1.1620654
1.1600185
1.169585
1.170575
1.1718672
1.1728362
1.1736744
1.1741118
1.1744567
1.1747131
1.1748867
1.1749716
1.1732282
1.1732118
1.1731759
1.1731151
1.1730253
1.1729021
1.1727402
1.1725319
1.1722705
1.1719272
1.1714495
1.171112
1.1704336
1.1697544
1.1691527
1.1686772
1.168314
1.1680652
1.1678429
1.1675734
1.1673328
1.1670826
1.1667664
1.1663942
1.1659025
1.1654383
1.1650277
1.1647159
1.1645757
1.1644289
1.1643049
1.1637979
1.1628617
1.1619427
1.1574118
1.1706432
1.1713854
1.1721252
1.1729314
1.173617
1.174009
1.1743344
1.1745792
1.1747462
1.1748273
1.1730472
1.1730314
1.1729975
1.1729403
1.1728559
1.1727404
1.1725888
1.1723945
1.1721527
1.1718431
1.1714087
1.1710882
1.1702669
1.1684182
1.1675692
1.1668478
1.1662355
1.1657227
1.1652741
1.1648239
1.1643734
1.1639062
1.1633999
1.1628786
1.1623542
1.1618867
1.1616347
1.1616044
1.1617222
1.1616734
1.1616026
1.1625213
1.1630703
1.16256
1.1598341
1.1699778
1.1709086
1.17159
1.1722935
1.1730073
1.1735376
1.1739053
1.1742139
1.1744466
1.174606
1.1746827
1.1728606
1.1728453
1.1728131
1.1727591
1.1726797
1.1725713
1.1724298
1.1722488
1.1720254
1.1717458
1.171356
1.1710691
1.1698095
1.1612653
1.1616925
1.1619336
1.1624044
1.162002
1.1609031
1.1577526
1.1706703
1.1710742
1.1716993
1.1723554
1.1730039
1.1734486
1.1738005
1.1740943
1.1743153
1.1744664
1.1745386
1.1726675
1.1726526
1.1726218
1.1725707
1.1724958
1.1723941
1.172262
1.1720935
1.1718871
1.1716337
1.1712879
1.1710753
1.1698521
1.1603546
1.1612735
1.1609705
1.1587851
1.1617649
1.1615736
1.1608525
1.1595
1.1701055
1.1707024
1.1711516
1.1717798
1.1724198
1.1729594
1.1733551
1.173695
1.1739752
1.1741852
1.1743278
1.1743952
1.1724675
1.1724527
1.172423
1.1723743
1.1723035
1.1722078
1.1720846
1.1719274
1.1717362
1.171505
1.1711899
1.1710097
1.1701389
1.1647934
1.1613382
1.1611916
1.1602497
1.1605443
1.1611099
1.160337
1.1594954
1.1627438
1.1704168
1.1706206
1.1711987
1.1718047
1.1724169
1.1728791
1.1732612
1.1735891
1.1738567
1.1740562
1.1741906
1.1742536
1.1722606
1.1722455
1.1722162
1.1721694
1.1721021
1.1720118
1.1718964
1.1717498
1.1715717
1.1713586
1.1710821
1.170695
1.1702974
1.1672208
1.1610904
1.1613653
1.1608463
1.1578823
1.1603364
1.1601385
1.1634481
1.1649744
1.1652086
1.1700102
1.1703094
1.1706467
1.1712243
1.1718478
1.1723769
1.1727964
1.1731677
1.1734834
1.1737389
1.1739287
1.1740552
1.1741142
1.1720469
1.1720307
1.1720014
1.1719557
1.1718912
1.1718056
1.1716969
1.1715599
1.1713931
1.1711947
1.1709457
1.170596
1.1703242
1.1686456
1.1603616
1.1613342
1.1611698
1.1601146
1.1618837
1.1635145
1.1657967
1.1679377
1.1663062
1.1692444
1.1699993
1.1701522
1.1706875
1.1712918
1.171827
1.1723096
1.1727157
1.1730749
1.1733781
1.1736221
1.1738026
1.1739219
1.1739772
1.1718261
1.1718084
1.1717783
1.1717332
1.1716707
1.1715889
1.171486
1.1713576
1.1712006
1.1710143
1.1707862
1.1704709
1.1702567
1.1688515
1.1612192
1.1612314
1.1606351
1.155941
1.1627521
1.165047
1.1677424
1.1691061
1.1690552
1.1696814
1.1697269
1.1701647
1.170714
1.1712889
1.1717862
1.1722439
1.1726367
1.172983
1.1732736
1.1735064
1.1736781
1.1737908
1.1738427
1.1715975
1.1715782
1.1715468
1.1715016
1.1714404
1.1713616
1.1712636
1.1711428
1.1709943
1.1708185
1.1706077
1.1703218
1.1701221
1.1693005
1.1634544
1.1606672
1.1611492
1.1608118
1.1595056
1.1667093
1.1687915
1.1693144
1.1693716
1.1697413
1.1702072
1.1707713
1.1712616
1.171744
1.1721798
1.1725591
1.1728918
1.1731699
1.173392
1.1735555
1.173662
1.1737109
1.1713609
1.1713399
1.1713068
1.1712609
1.1712004
1.1711238
1.1710297
1.1709155
1.1707742
1.1706076
1.1704105
1.170162
1.1697756
1.1694672
1.167471
1.1627065
1.1608896
1.16085
1.1598952
1.1691611
1.1693627
1.1697329
1.170242
1.1707636
1.171232
1.1717015
1.172117
1.1724825
1.1728014
1.1730672
1.1732789
1.1734348
1.1735355
1.1735817
1.1711163
1.1710931
1.1710581
1.171011
1.1709505
1.1708753
1.1707842
1.1706752
1.1705401
1.1703809
1.1701942
1.1699693
1.1696417
1.1692452
1.1686606
1.1666866
1.1642906
1.1605304
1.1607497
1.1603177
1.1577264
1.1684335
1.1690789
1.1693898
1.1697748
1.1702753
1.1707424
1.1712117
1.1716571
1.1720549
1.1724064
1.1727115
1.1729654
1.1731674
1.173316
1.1734115
1.1734551
1.1708633
1.1708377
1.1708004
1.1707518
1.1706907
1.1706161
1.170527
1.170422
1.1702917
1.1701381
1.1699588
1.1697485
1.1694529
1.1691556
1.168636
1.1675218
1.1663736
1.1649722
1.1616317
1.1596003
1.160386
1.1603255
1.1595987
1.1687506
1.1689161
1.1693919
1.1697906
1.1702699
1.1707274
1.1711883
1.1716115
1.171993
1.1723303
1.1726221
1.1728645
1.1730573
1.1731992
1.1732899
1.1733312
1.1706013
1.1705732
1.1705335
1.170483
1.1704209
1.1703462
1.1702582
1.1701557
1.1700291
1.1698794
1.1697052
1.1695028
1.1692322
1.1689396
1.1685644
1.1679537
1.1668299
1.1659476
1.1645615
1.1623999
1.1599475
1.1600693
1.1596657
1.1572467
1.1680766
1.1686809
1.1689417
1.1693839
1.1697923
1.1702723
1.1707132
1.1711621
1.1715643
1.1719305
1.1722538
1.1725328
1.1727644
1.1729487
1.1730844
1.1731707
1.1732099
1.1703295
1.170299
1.170257
1.1702045
1.170141
1.1700657
1.169978
1.1698767
1.1697526
1.1696052
1.1694338
1.1692352
1.1689832
1.1686832
1.1683646
1.1679193
1.167244
1.1661967
1.1651093
1.1642226
1.1629329
1.159586
1.1592572
1.1595972
1.159605
1.1591308
1.1670283
1.1683983
1.1685239
1.1689716
1.1693824
1.1698317
1.1702878
1.170698
1.1711305
1.1715156
1.1718671
1.1721769
1.1724437
1.1726653
1.1728418
1.1729716
1.1730539
1.1730913
1.1700471
1.1700146
1.1699703
1.1699157
1.1698507
1.1697744
1.1696863
1.1695853
1.1694626
1.1693161
1.1691454
1.1689479
1.1687074
1.1684113
1.1680868
1.1677375
1.1672192
1.1665306
1.1655449
1.1645121
1.1638238
1.162682
1.161325
1.1598692
1.15943
1.1591981
1.1584241
1.1564643
1.1679693
1.1682063
1.1685724
1.1690042
1.1694077
1.1698285
1.1702616
1.1706823
1.1710941
1.1714644
1.1718018
1.1720988
1.1723543
1.1725668
1.1727361
1.1728606
1.1729392
1.1729751
1.1697534
1.1697192
1.1696728
1.1696163
1.1695497
1.1694722
1.1693832
1.1692818
1.1691592
1.1690122
1.1688407
1.1686426
1.1684077
1.1681183
1.1677946
1.1674343
1.1670285
1.1664704
1.1657678
1.1648722
1.1639468
1.1629485
1.1622315
1.1603721
1.159616
1.1589858
1.1585564
1.1579712
1.15742
1.1666862
1.1680414
1.1682816
1.1686237
1.169032
1.1694257
1.169826
1.1702879
1.1706603
1.1710544
1.171411
1.171735
1.17202
1.1722652
1.1724693
1.1726321
1.1727518
1.1728273
1.1728618
1.1694476
1.1694119
1.1693637
1.1693055
1.1692373
1.1691586
1.1690685
1.1689661
1.1688425
1.168694
1.1685205
1.1683203
1.1680872
1.1678036
1.1674821
1.1671205
1.1667111
1.1662475
1.1656635
1.1649738
1.1641914
1.1633582
1.1622259
1.1609609
1.1599319
1.1592103
1.1585875
1.1580632
1.1577336
1.1572396
1.1564245
1.1676655
1.1679416
1.168265
1.1686017
1.1690224
1.1694153
1.1698178
1.1702609
1.1706326
1.1710097
1.1713539
1.1716654
1.1719394
1.1721753
1.1723719
1.1725289
1.1726441
1.172717
1.1727504
1.1691283
1.1690915
1.1690418
1.1689823
1.1689128
1.1688329
1.1687416
1.1686379
1.1685126
1.1683616
1.1681854
1.1679823
1.1677482
1.1674681
1.1671488
1.1667891
1.1663809
1.1659264
1.1654013
1.1648215
1.1641234
1.1633804
1.1624177
1.1613109
1.1602774
1.1594021
1.1586994
1.1581586
1.1577648
1.1575676
1.1575162
1.1576955
1.1569121
1.1665461
1.16775
1.1679456
1.1682164
1.1685873
1.1690085
1.1694007
1.1698024
1.1702278
1.1705994
1.1709614
1.1712943
1.1715944
1.1718586
1.1720861
1.1722761
1.1724279
1.1725391
1.1726097
1.1726423
1.1687942
1.1687565
1.1687058
1.1686453
1.1685749
1.1684941
1.1684017
1.1682966
1.1681692
1.1680154
1.1678358
1.1676291
1.1673925
1.1671141
1.1667962
1.1664375
1.1660338
1.1655843
1.1650684
1.1645005
1.1638626
1.1631725
1.1623274
1.1612977
1.1602878
1.1594126
1.1586608
1.1581478
1.1578588
1.1577784
1.1578964
1.1580997
1.1585975
1.1592486
1.1672914
1.1675629
1.1678944
1.1681697
1.168575
1.1689866
1.1693837
1.1697864
1.1701913
1.1705576
1.1709072
1.1712296
1.1715196
1.1717751
1.1719952
1.1721793
1.1723267
1.1724343
1.1725032
1.1725352
1.1684438
1.1684056
1.1683542
1.168293
1.1682222
1.1681408
1.1680478
1.1679413
1.1678117
1.1676555
1.1674726
1.1672621
1.1670221
1.1667433
1.1664254
1.1660679
1.1656638
1.1652139
1.1647023
1.1641345
1.1634935
1.1627975
1.1620061
1.1610997
1.1601494
1.1592619
1.1585225
1.1580717
1.1578812
1.1579297
1.1581848
1.1585873
1.1591031
1.1596768
1.1608436
1.16207
1.1663253
1.1672636
1.167522
1.1678051
1.1681376
1.1685573
1.1689675
1.1693671
1.1697619
1.1701505
1.1705106
1.1708501
1.1711632
1.1714445
1.1716924
1.1719063
1.1720853
1.1722287
1.1723332
1.1724006
1.1724324
1.168075
1.1680364
1.1679846
1.1679234
1.1678526
1.1677712
1.1676778
1.1675705
1.1674391
1.1672804
1.1670946
1.1668807
1.1666368
1.1663562
1.1660371
1.1656763
1.1652699
1.164816
1.1643016
1.1637542
1.1631035
1.1623722
1.161575
1.1607234
1.159824
1.1589765
1.1583121
1.1579538
1.1578703
1.1580461
1.1584555
1.1590413
1.1597358
1.160499
1.1615081
1.1634586
1.1643901
1.1650143
1.1668218
1.1670355
1.1674436
1.1677355
1.1681184
1.1685379
1.168943
1.1693379
1.169724
1.1701011
1.1704546
1.1707854
1.1710903
1.171364
1.1716054
1.1718138
1.1719885
1.1721288
1.1722303
1.1722969
1.1723284
1.1676868
1.1676479
1.1675959
1.1675349
1.1674646
1.1673837
1.1672905
1.167183
1.1670505
1.1668899
1.1667014
1.1664841
1.1662362
1.1659528
1.1656297
1.1652644
1.1648525
1.16439
1.163866
1.1633055
1.1626407
1.1619017
1.1611119
1.160277
1.1594122
1.1586527
1.1581225
1.1578366
1.157857
1.1581618
1.1587355
1.1595019
1.1603755
1.1613219
1.1624082
1.1636908
1.1656367
1.1662743
1.166563
1.1669694
1.1673465
1.1676756
1.1680873
1.1685024
1.1689039
1.1692959
1.1696768
1.1700466
1.1703949
1.1707192
1.1710176
1.1712853
1.1715215
1.1717256
1.1718969
1.1720341
1.1721334
1.1721993
1.172231
1.1672766
1.1672374
1.1671853
1.1671247
1.1670552
1.1669752
1.1668828
1.1667756
1.1666433
1.1664812
1.1662906
1.1660703
1.1658192
1.1655312
1.1652031
1.1648313
1.1644106
1.1639353
1.1633981
1.1628199
1.1621417
1.1614047
1.160634
1.1598172
1.1590186
1.1583728
1.1579532
1.157783
1.1578868
1.1582989
1.1590078
1.159865
1.1608293
1.1617981
1.1628359
1.1640164
1.1651817
1.1660374
1.1665311
1.1668754
1.1672535
1.167622
1.1680438
1.1684546
1.1688527
1.1692423
1.1696188
1.1699822
1.1703252
1.1706436
1.170936
1.1711984
1.1714301
1.1716304
1.1717987
1.1719331
1.1720309
1.1720966
1.1721285
1.1668466
1.166807
1.1667547
1.1666945
1.1666259
1.166547
1.1664557
1.1663492
1.1662189
1.166056
1.1658634
1.1656404
1.1653851
1.1650919
1.164757
1.1643761
1.1639432
1.1634806
1.162926
1.1623054
1.1616262
1.160919
1.160175
1.1594183
1.15874
1.1582227
1.1578971
1.1577828
1.1579237
1.1583859
1.1591723
1.1600999
1.161106
1.1620919
1.1631254
1.1642417
1.1653218
1.1659514
1.1664086
1.1667491
1.1671416
1.1675447
1.1679704
1.1683824
1.1687826
1.169174
1.1695506
1.169912
1.1702528
1.1705683
1.1708573
1.1711167
1.1713456
1.1715437
1.1717102
1.171842
1.171939
1.1720048
1.172037
1.166393
1.1663528
1.1663002
1.1662398
1.1661719
1.1660942
1.1660039
1.1658981
1.1657707
1.165608
1.1654147
1.1651898
1.1649309
1.1646322
1.1642898
1.1638982
1.1634513
1.1629456
1.1624065
1.161786
1.1611446
1.1604901
1.1598442
1.159231
1.1587211
1.1583285
1.158057
1.1579322
1.1580282
1.1584493
1.1592313
1.1601853
1.1612074
1.1622053
1.1632165
1.1643329
1.1652561
1.1658313
1.1662557
1.1666375
1.1670434
1.1674717
1.1678978
1.1683106
1.1687111
1.1691012
1.1694754
1.169833
1.1701698
1.1704812
1.1707663
1.1710222
1.1712482
1.1714438
1.1716082
1.1717378
1.1718343
1.1719004
1.1719332
1.1659302
1.1658897
1.1658368
1.1657756
1.1657067
1.1656292
1.1655397
1.1654345
1.1653086
1.1651493
1.164954
1.1647264
1.1644632
1.1641569
1.1638044
1.1634008
1.1629704
1.1624561
1.1618955
1.1613239
1.1607802
1.1602893
1.1598716
1.1594959
1.1591809
1.1589009
1.158625
1.158389
1.1582943
1.1585355
1.159216
1.1601611
1.1612238
1.1622661
1.1632634
1.164261
1.1650754
1.165621
1.1660563
1.1664759
1.1668994
1.1673464
1.1677777
1.1681978
1.1686061
1.1690031
1.1693829
1.1697441
1.1700833
1.1703961
1.1706816
1.1709376
1.1711638
1.1713594
1.1715228
1.171652
1.171749
1.1718159
1.1718495
1.1654417
1.1654013
1.1653489
1.1652877
1.1652179
1.1651384
1.165047
1.1649408
1.1648149
1.16466
1.1644669
1.1642373
1.1639716
1.1636627
1.1633042
1.1628934
1.1624616
1.1619631
1.1614655
1.1610522
1.1607586
1.1606625
1.1605936
1.1605837
1.1604927
1.1602798
1.1599241
1.1594231
1.1589285
1.1587581
1.1591775
1.1600772
1.1611043
1.1621546
1.1631513
1.1641021
1.1648561
1.1654385
1.1658915
1.1663438
1.166787
1.167248
1.167685
1.1681099
1.1685205
1.1689162
1.1692938
1.1696518
1.1699875
1.1702971
1.1705798
1.1708336
1.1710576
1.1712514
1.1714124
1.1715407
1.171638
1.1717056
1.17174
1.1649846
1.1649443
1.1648923
1.1648311
1.1647606
1.1646797
1.1645862
1.1644771
1.164348
1.1641921
1.164002
1.163772
1.1635017
1.1631891
1.1628306
1.1624533
1.162013
1.1615771
1.1612641
1.1612214
1.1616308
1.1624231
1.1629143
1.1632715
1.1633495
1.1631585
1.1626916
1.1618168
1.1604252
1.1593002
1.1591939
1.1598552
1.1608298
1.1618876
1.1628855
1.1637855
1.1645445
1.1651318
1.1656278
1.1661129
1.1665827
1.1670583
1.1675082
1.1679453
1.1683684
1.1687783
1.1691693
1.1695383
1.169883
1.1701999
1.1704879
1.1707456
1.1709735
1.1711692
1.171332
1.1714625
1.1715621
1.1716316
1.1716674
1.1644708
1.1644308
1.1643796
1.1643191
1.1642491
1.1641685
1.1640753
1.1639665
1.1638378
1.1636831
1.1634957
1.1632697
1.1630008
1.1626856
1.1623256
1.161962
1.1615753
1.1613118
1.1614628
1.1624658
1.1646321
1.1675214
1.168135
1.1685465
1.1687135
1.1685097
1.1681403
1.1672662
1.1639306
1.1605393
1.1594145
1.1596108
1.1605249
1.1616109
1.1626166
1.1635188
1.1642988
1.1649146
1.1654446
1.165955
1.1664457
1.1669342
1.1673951
1.1678407
1.1682703
1.1686803
1.1690674
1.1694324
1.1697732
1.1700867
1.1703721
1.1706285
1.1708538
1.1710472
1.1712088
1.171339
1.171439
1.1715092
1.1715459
1.1641153
1.1640735
1.1640202
1.1639563
1.1638814
1.1637943
1.163693
1.1635747
1.1634359
1.1632716
1.1630772
1.1628491
1.1625861
1.1622907
1.1620068
1.1617065