/*--------------------------------*- C++ -*----------------------------------*\
  =========                 |
  \\      /  F ield         | OpenFOAM: The Open Source CFD Toolbox
   \\    /   O peration     | Website:  https://openfoam.org
    \\  /    A nd           | Version:  8
     \\/     M anipulation  |
\*---------------------------------------------------------------------------*/
FoamFile
{
    version     2.0;
    format      ascii;
    class       volScalarField;
    location    "10800/air";
    object      T;
}
// * * * * * * * * * * * * * * * * * * * * * * * * * * * * * * * * * * * * * //

dimensions      [0 0 0 1 0 0 0];

internalField   nonuniform List<scalar> 
167754
(
300.34718
300.35034
300.35027
300.34991
300.34927
300.34855
300.34867
300.34858
300.34851
300.34859
300.34871
300.3487
300.34866
300.34864
300.34867
300.34858
300.34847
300.34815
300.34793
300.34804
300.34737
300.34918
300.34807
300.34841
300.3484
300.3489
300.34884
300.34872
300.34862
300.34859
300.34852
300.34842
300.3483
300.34836
300.34831
300.34834
300.34836
300.34845
300.34852
300.34865
300.34871
300.34874
300.34871
300.3486
300.34852
300.34844
300.34847
300.34857
300.34863
300.34914
300.35007
300.35096
300.3519
300.35273
300.34611
300.3455
300.34527
300.3452
300.34523
300.34735
300.34429
300.34447
300.34492
300.34561
300.34658
300.34645
300.3466
300.34662
300.34656
300.34645
300.3465
300.34655
300.34658
300.34657
300.34663
300.34673
300.34721
300.34753
300.34651
300.34538
300.346
300.34747
300.3469
300.34697
300.34631
300.34627
300.34633
300.34646
300.34655
300.34663
300.34673
300.34685
300.34678
300.34687
300.34685
300.34687
300.34677
300.34672
300.34665
300.34662
300.3466
300.34663
300.34669
300.34674
300.34674
300.34668
300.34657
300.34645
300.3457
300.34463
300.34345
300.34212
300.34062
300.34538
300.34491
300.34448
300.34432
300.34448
300.3379
300.3423
300.3427
300.34335
300.34404
300.34433
300.34431
300.34412
300.34403
300.34429
300.3444
300.34457
300.34463
300.34472
300.34487
300.34493
300.34468
300.34322
300.34147
300.34328
300.34609
300.34537
300.34247
300.3437
300.34279
300.3444
300.34421
300.34402
300.34357
300.34345
300.34356
300.34349
300.34356
300.34372
300.34394
300.34413
300.34436
300.34459
300.34461
300.34474
300.34471
300.34468
300.34455
300.34438
300.34423
300.34416
300.3441
300.34396
300.34375
300.34304
300.3411
300.33808
300.33481
300.3314
300.32356
300.32079
300.31916
300.31858
300.31881
300.32774
300.32446
300.32586
300.32881
300.33258
300.33592
300.33855
300.34037
300.34106
300.3412
300.34134
300.34145
300.34164
300.34171
300.34168
300.34125
300.34055
300.34025
300.34299
300.34341
300.32655
300.32588
300.34548
300.3416
300.34397
300.34021
300.34029
300.34018
300.34095
300.34091
300.34026
300.34111
300.34122
300.34134
300.3413
300.34138
300.34136
300.34139
300.34148
300.34158
300.34181
300.34194
300.34201
300.342
300.34186
300.34153
300.34107
300.34002
300.33712
300.33166
300.32386
300.31548
300.30607
300.29741
300.29155
300.28627
300.28284
300.28155
300.28208
300.29616
300.29764
300.30089
300.30659
300.31378
300.32143
300.32792
300.33255
300.33557
300.33744
300.33818
300.33877
300.339
300.33914
300.3391
300.33849
300.33834
300.34074
300.32339
300.3221
300.32331
300.32522
300.32589
300.33751
300.32449
300.3354
300.33444
300.33423
300.33188
300.33232
300.33433
300.3342
300.33591
300.33704
300.33777
300.33836
300.3388
300.339
300.33906
300.33907
300.33903
300.33907
300.33909
300.33905
300.33887
300.3383
300.33667
300.33253
300.32399
300.3106
300.29464
300.27841
300.26437
300.25281
300.2442
300.23791
300.23403
300.23246
300.23274
300.25451
300.25577
300.26007
300.26769
300.27811
300.29039
300.30339
300.31529
300.32397
300.32909
300.33298
300.33407
300.33529
300.33512
300.33422
300.33257
300.33082
300.32336
300.3275
300.36041
300.46314
300.50954
300.31979
300.31319
300.30993
300.30998
300.31001
300.31071
300.31181
300.3144
300.31737
300.32
300.32332
300.32635
300.32954
300.33238
300.33381
300.33483
300.33571
300.33644
300.33682
300.33688
300.33682
300.33658
300.33593
300.33415
300.32928
300.31824
300.29958
300.27755
300.25597
300.23688
300.2213
300.20919
300.20029
300.19407
300.19028
300.18865
300.18867
300.21351
300.21496
300.21957
300.2277
300.23923
300.25363
300.26995
300.28657
300.30171
300.31454
300.31971
300.32521
300.32591
300.32631
300.32324
300.32133
300.32193
300.38316
300.46979
301.19021
300.4146
300.30518
300.34334
300.54195
300.36396
300.30217
300.29675
300.29452
300.29689
300.29867
300.31351
300.3126
300.31341
300.31419
300.31577
300.31929
300.32334
300.32731
300.3306
300.33265
300.3338
300.33431
300.33405
300.3325
300.32783
300.31711
300.29673
300.26991
300.24271
300.21881
300.19922
300.184
300.17255
300.16425
300.15855
300.15506
300.15347
300.15328
300.17906
300.18067
300.18518
300.19304
300.20436
300.21901
300.2365
300.25571
300.27416
300.29276
300.30108
300.30562
300.3072
300.30632
300.30462
300.31139
300.44023
301.22836
300.32976
300.32843
300.52544
300.66298
300.36319
300.32779
300.31388
300.30778
300.30366
300.32348
300.31799
300.31414
300.31321
300.31266
300.31357
300.31613
300.32038
300.32578
300.32935
300.32939
300.32721
300.31922
300.30062
300.27209
300.24045
300.21138
300.18737
300.16862
300.1545
300.14409
300.13662
300.1315
300.12833
300.12679
300.12644
300.15275
300.15446
300.15876
300.16609
300.17667
300.19057
300.20734
300.22517
300.2485
300.26204
300.2705
300.27652
300.28359
300.28897
300.30383
300.34653
300.60075
300.36058
300.4427
301.6418
300.74442
300.39709
300.35479
300.33218
300.31836
300.31016
300.32569
300.31841
300.31428
300.31315
300.31212
300.31338
300.31693
300.31849
300.3158
300.30609
300.28352
300.2496
300.2153
300.18595
300.16282
300.14537
300.13248
300.12309
300.11638
300.11177
300.10887
300.10736
300.10686
300.13429
300.13608
300.14019
300.14703
300.15685
300.1697
300.18515
300.20404
300.2337
300.28108
300.41894
300.26543
300.25603
300.2672
300.29272
300.3944
301.09391
300.72365
300.48475
300.70636
300.64
300.40352
300.36666
300.33574
300.31916
300.31169
300.3249
300.31685
300.31334
300.30939
300.30847
300.30225
300.28694
300.26131
300.22834
300.19499
300.16674
300.14484
300.12862
300.11681
300.1083
300.10222
300.09801
300.09528
300.09377
300.09314
300.1229
300.12479
300.12882
300.13535
300.14456
300.15668
300.17337
300.18652
300.27721
301.39791
300.3855
300.26812
300.30528
300.45463
300.66385
300.73812
302.01168
300.66055
300.4037
300.37006
300.34294
300.32243
300.32145
300.31249
300.29131
300.29198
300.27595
300.24745
300.21195
300.17925
300.1524
300.13203
300.11704
300.10621
300.09841
300.09285
300.08894
300.08634
300.08479
300.08404
300.11733
300.11943
300.12365
300.13037
300.14014
300.15433
300.15684
300.20897
300.46443
300.79974
300.34762
300.45174
300.89044
300.98561
300.76855
300.46021
300.34383
300.30454
300.29236
300.27462
300.25575
300.2333
300.19919
300.1684
300.143
300.12354
300.10942
300.09928
300.09225
300.08727
300.08376
300.08126
300.07966
300.07878
300.11772
300.11996
300.12439
300.13147
300.14209
300.15966
300.16807
300.3349
300.57533
301.28315
301.2171
301.85052
300.63005
300.31945
300.39473
300.34398
300.28703
300.23801
300.18841
300.15206
300.1271
300.1159
300.10382
300.09527
300.08893
300.08434
300.08075
300.07843
300.07682
300.07581
300.12142
300.12392
300.12879
300.13671
300.1499
300.14829
300.21737
300.62155
300.94998
301.47539
301.52918
300.62844
300.34139
300.5355
300.32845
300.19049
300.13288
300.10251
300.0858
300.07719
300.08587
300.08345
300.0808
300.07862
300.07697
300.07588
300.1302
300.13313
300.13889
300.149
300.1698
300.17315
300.31878
301.46771
301.74846
302.23758
301.06328
300.5066
300.45673
300.36889
300.21796
300.12548
300.08652
300.0722
300.06722
300.08296
300.08065
300.07886
300.07759
300.14397
300.14731
300.15391
300.16605
300.16151
300.2403
300.98424
301.70437
301.7891
301.99633
300.73918
300.49811
300.88013
300.33627
300.17252
300.08563
300.06996
300.08561
300.08339
300.08182
300.16214
300.16617
300.17514
300.19739
300.19688
300.40063
301.88604
302.03804
302.41616
300.6081
300.55892
300.31782
300.0876
300.09502
300.09084
300.08857
300.18492
300.18991
300.20184
300.19192
300.26975
300.94924
302.08146
302.05662
302.30016
301.07692
300.64704
300.77435
300.2761
300.10625
300.10865
300.10111
300.09761
300.21249
300.21888
300.23557
300.22784
300.3346
302.38463
302.08767
302.22061
302.56698
300.85805
300.77201
301.25262
300.21857
300.12518
300.12553
300.11414
300.10899
300.24472
300.25269
300.27321
300.26898
300.35211
301.15074
302.1515
302.18965
302.4039
303.38111
300.85471
300.95053
300.20572
300.16848
300.14356
300.12938
300.12258
300.28106
300.29008
300.31139
300.35388
300.37893
300.62022
302.48588
302.16301
302.30207
302.6298
301.47284
301.03189
301.43097
300.23562
300.1948
300.1639
300.14671
300.13825
300.32089
300.33054
300.35269
300.39708
300.41563
300.61235
302.18068
302.22102
302.4145
303.02817
301.29667
301.35677
301.92133
300.26182
300.22247
300.18628
300.166
300.15587
300.36358
300.37359
300.39643
300.44133
300.45852
300.59229
301.56751
302.40573
302.1604
302.27224
302.45354
302.74753
303.08351
303.35775
303.55901
303.7237
303.86393
303.98991
304.10017
304.20339
304.33167
304.52289
304.67784
304.508
304.21101
303.83906
303.42928
303.01001
302.60718
302.24969
301.87435
301.6135
301.47117
301.70086
302.22146
300.29573
300.25165
300.21057
300.18717
300.17539
300.40846
300.41859
300.44149
300.48344
300.55492
300.60828
301.17075
302.14488
302.16685
302.31937
302.47359
302.74324
303.00403
303.30612
303.52629
303.70699
303.84472
303.96866
304.05335
304.13618
304.25047
304.4058
304.48028
304.38141
304.22535
304.00972
303.8444
303.51356
302.99371
302.4496
301.99069
301.73766
301.76346
301.94106
302.37994
300.60546
300.32753
300.28253
300.23677
300.21019
300.19674
300.45498
300.46505
300.48773
300.52805
300.59786
300.63909
300.85454
302.26949
302.10714
302.19975
302.38172
302.58123
302.78017
303.03295
303.28521
303.5379
304.1496
304.32604
304.53616
304.16976
304.39978
303.0737
302.47327
302.0548
301.95864
302.09799
302.51399
300.6102
300.36427
300.31504
300.26475
300.23502
300.21989
300.5027
300.51254
300.5348
300.57386
300.64163
300.67704
300.87383
302.45172
302.06658
302.1013
302.22248
302.38839
302.96524
303.07714
303.03735
303.42478
303.64581
303.83231
303.95323
304.23345
304.45617
304.54493
304.55803
304.60008
304.42863
304.25526
304.04863
303.87221
303.87619
304.35071
303.81673
303.21427
302.65021
302.26989
302.2397
302.2445
302.68709
300.52583
300.40349
300.34879
300.2944
300.26158
300.2448
300.55114
300.56069
300.58243
300.62034
300.68532
300.71816
300.85892
301.65887
302.06038
302.04345
302.16799
302.32461
302.45527
302.64395
302.88051
303.69925
304.21144
304.39333
304.63637
304.83489
304.86544
304.80851
304.62906
304.32827
304.14081
303.79186
303.73251
304.34995
303.87928
303.40523
302.94804
302.55653
302.32495
302.40906
303.40399
300.55043
300.44155
300.38446
300.32577
300.28985
300.27144
300.59992
300.60918
300.63024
300.66652
300.72479
300.81222
300.85843
301.10753
302.31015
301.98924
302.11443
302.30022
302.50554
302.63311
302.67432
302.78388
303.02726
303.61216
303.88346
304.04399
304.15187
304.21424
304.17206
304.00281
303.8249
303.70911
303.65211
303.61863
303.60133
303.63671
304.00266
303.60316
303.15946
302.72521
302.53737
302.5786
304.0003
300.58396
300.50013
300.4181
300.35816
300.31966
300.29973
300.64881
300.65774
300.678
300.71255
300.76597
300.8435
300.95395
301.04911
301.28262
301.70541
301.94158
301.95893
302.10474
302.34122
302.64138
303.32916
303.41333
303.50135
303.57191
303.59482
303.58161
303.54605
303.50992
303.48532
303.4721
303.46835
303.48042
303.54956
304.06267
303.81905
303.69062
303.14192
302.76972
302.75362
304.17194
300.62653
300.54066
300.4536
300.39167
300.35089
300.32958
300.69762
300.70616
300.72551
300.7583
300.80791
300.87838
300.97525
301.11191
301.22729
301.47499
301.7579
301.90335
302.0508
302.26261
302.59455
303.61233
303.19631
303.21758
303.2838
303.33897
303.37003
303.38012
303.37813
303.3728
303.37007
303.37244
303.3771
303.39126
303.46858
304.12405
304.0209
304.10338
303.69308
303.01381
302.9846
303.68269
303.76992
303.93497
300.67648
300.58269
300.49073
300.42633
300.38342
300.36088
300.74617
300.75427
300.77262
300.80359
300.84992
300.91488
301.00235
301.11841
301.2743
301.48493
301.66591
301.82682
301.96526
302.14615
302.45824
303.13454
303.06037
303.09783
303.14843
303.1857
303.22149
303.2439
303.25866
303.27006
303.28716
303.29985
303.31522
303.32517
303.4067
304.19856
304.12319
304.24357
304.02632
303.36099
303.61455
303.85472
303.71658
303.52529
303.35032
303.27202
303.42704
301.02066
300.72573
300.6263
300.52937
300.46209
300.41714
300.39349
300.79435
300.80198
300.81926
300.84839
300.8917
300.95197
301.03223
301.13611
301.27534
301.42308
301.5969
301.76328
301.916
302.06628
302.35324
303.05044
302.98509
303.00852
303.04708
303.08521
303.11886
303.14725
303.1715
303.19346
303.21494
303.23651
303.25904
303.27167
303.34635
304.25662
304.05329
304.11419
304.1551
303.99889
304.14383
303.80361
303.5444
303.25227
303.07424
302.91668
302.85528
303.02948
301.0642
300.7807
300.67042
300.56877
300.49868
300.45189
300.42728
300.84213
300.84927
300.86545
300.89277
300.93322
300.98926
301.0635
301.15941
301.28926
301.40221
301.60213
301.81083
301.94335
302.05525
302.28414
302.99794
302.92296
302.93844
302.96932
303.00303
303.03656
303.06867
303.09923
303.12876
303.1583
303.18804
303.21903
303.23615
303.27762
303.7098
304.0103
303.80502
303.88425
304.14685
305.52413
303.60052
303.26654
303.0659
302.82721
302.68411
302.58441
302.59868
302.9933
301.0228
300.83364
300.71456
300.60888
300.53596
300.48754
300.46218
300.88954
300.8962
300.91131
300.93685
300.9746
301.02676
301.09567
301.18461
301.31031
301.39219
301.60163
301.83453
302.02908
302.09898
302.3008
302.95939
302.87005
302.88227
302.90946
302.94274
302.97833
303.01493
303.0517
303.08861
303.1269
303.16541
303.2053
303.22311
303.26993
303.34666
303.66897
303.72622
303.7554
304.19079
303.12783
302.85211
302.70284
302.49562
302.42281
301.4392
300.89703
300.75461
300.64856
300.57365
300.52394
300.49811
300.9367
300.9429
300.95698
300.98083
301.01605
301.06464
301.12871
301.21125
301.32325
301.48094
301.59492
301.81936
302.04142
302.13293
302.29972
302.90482
302.84776
302.84629
302.87621
302.91374
302.95539
302.99947
303.04455
303.09074
303.13753
303.18264
303.22385
303.25993
303.29612
303.35428
303.69582
303.73431
303.9246
302.82132
302.57932
301.98334
300.97813
300.7985
300.68816
300.61161
300.56104
300.53503
300.98378
300.98957
301.00266
301.02492
301.05781
301.10311
301.16275
301.23958
301.3409
301.48604
301.5811
301.8444
302.06051
302.14821
302.23112
302.35705
302.46732
302.57524
302.66233
302.72773
302.77069
302.83243
302.9087
302.97587
303.04169
303.1097
303.18307
303.26447
303.34679
303.4042
303.38944
303.36142
303.38852
303.3993
303.57505
303.79541
304.33952
302.68869
301.95908
301.03054
300.83911
300.72701
300.64976
300.5988
300.57293
301.03082
301.03625
301.0485
301.06931
301.10017
301.14246
301.19791
301.26963
301.36287
301.49387
301.58749
301.82265
302.05441
302.18566
302.24391
302.33762
302.39593
302.46651
302.54034
302.61033
302.67759
302.88813
303.2079
303.47676
303.66786
303.81723
303.97202
304.14264
304.29257
304.45448
304.50291
304.37789
303.7216
303.59204
303.66338
304.04088
302.29356
301.45054
301.04806
300.87427
300.76497
300.68814
300.63725
300.6118
301.07892
301.08404
301.09549
301.11496
301.14372
301.18326
301.23522
301.30225
301.38581
301.51782
301.58872
301.80103
302.0272
302.26972
302.35084
302.42466
302.43324
302.46062
302.5196
302.58282
302.63081
302.90832
303.17646
303.36582
303.40344
303.54131
303.66927
303.69474
304.08295
304.36246
304.56424
304.28368
303.95082
303.96422
304.24083
304.84361
302.15031
301.95889
301.35634
301.05047
300.90478
300.80151
300.72648
300.67629
300.6515
301.13298
301.13781
301.14853
301.16675
301.18598
301.223
301.27166
301.34212
301.42153
301.53008
301.67876
301.77875
302.01845
302.23589
302.38532
302.48133
302.5169
302.51676
302.55957
302.63258
302.68708
302.99557
303.15377
303.21078
303.11711
303.25271
303.37549
303.4582
303.76448
303.93747
304.07149
304.22568
304.14321
304.32529
304.90155
302.20828
301.92955
301.56577
301.29295
301.05697
300.93385
300.83675
300.76455
300.71569
300.69178
301.18261
301.18722
301.19732
301.21443
301.23971
301.2744
301.32
301.37862
301.45221
301.54888
301.68337
301.77837
301.96938
302.16059
302.32998
302.46384
302.5661
302.63614
302.69874
302.77461
302.84233
302.91278
303.0018
303.10659
303.24502
303.37571
303.49131
303.57909
303.61855
303.65988
303.6948
303.83753
304.10111
304.35982
305.63543
301.91036
301.70142
301.49313
301.26616
301.07315
300.96278
300.87116
300.80226
300.75523
300.7324
301.23356
301.23799
301.24754
301.26365
301.28741
301.31994
301.3626
301.4173
301.4854
301.57256
301.69486
301.78508
302.0163
302.53677
302.77578
302.97889
303.15127
303.29563
303.42192
303.54869
303.67551
303.80703
303.94957
304.09633
304.24399
304.3756
304.44654
304.45507
304.42189
304.43564
304.45558
304.19694
304.04238
304.18605
304.95345
302.09769
301.83563
301.6438
301.44574
301.2448
301.09549
300.99197
300.90509
300.83958
300.79471
300.7731
301.2861
301.2904
301.29947
301.31467
301.33702
301.36754
301.40739
301.45834
301.52124
301.59993
301.70969
301.79044
302.14507
304.55055
304.43025
304.3624
304.22985
304.34313
304.65251
305.53947
301.90273
301.78902
301.61304
301.42831
301.24574
301.12056
301.02147
300.93876
300.87655
300.83401
300.8137
301.34046
301.34466
301.35333
301.36772
301.38879
301.41743
301.45461
301.50207
301.56017
301.6315
301.72885
301.78871
302.13307
304.80693
304.54823
304.63352
305.24879
304.40988
304.46373
304.66675
305.04752
302.06174
301.89371
301.76723
301.59036
301.41019
301.25828
301.14688
301.05119
300.97229
300.91319
300.87304
300.85405
301.39675
301.40092
301.4093
301.42301
301.44294
301.46987
301.50457
301.5488
301.60265
301.66773
301.75645
301.80718
302.05233
303.55728
304.53002
304.57129
304.83646
304.75353
304.5943
304.81188
305.04881
304.13428
301.97411
301.91673
301.75397
301.58336
301.411
301.28088
301.17331
301.08099
301.00567
300.94948
300.91166
300.89391
301.455
301.45927
301.4675
301.48069
301.49964
301.52505
301.55755
301.59882
301.64896
301.70894
301.7868
301.89577
302.00772
302.87388
304.59976
304.52239
304.66849
305.50296
304.81205
304.86775
303.93601
303.50631
303.44036
302.08856
302.00434
301.90939
301.74675
301.57123
301.42226
301.30416
301.19963
301.11076
301.03883
300.9854
300.94977
300.93317
301.51517
301.51972
301.52799
301.54084
301.559
301.58311
301.6137
301.65228
301.69923
301.75511
301.82519
301.92364
302.00016
302.47273
304.80496
304.53113
304.57742
304.8745
304.37644
303.91733
303.27481
302.67206
303.13136
302.30417
302.09163
302.0486
301.89789
301.72775
301.57709
301.44122
301.32689
301.22575
301.14039
301.07172
301.0209
300.98731
300.97174
301.57735
301.58231
301.5908
301.6035
301.62108
301.64411
301.67307
301.70923
301.75344
301.8059
301.87011
301.95887
302.01916
302.41478
304.56351
304.56007
304.72797
306.0495
304.13195
303.48586
302.72703
302.3431
302.35743
302.18113
302.16833
302.04507
301.89043
301.72857
301.58857
301.45972
301.34913
301.25164
301.16982
301.10429
301.05593
301.02422
301.0096
301.6417
301.64712
301.65597
301.6687
301.68591
301.7081
301.73569
301.7697
301.81152
301.86101
301.92035
302.00083
302.05707
302.28837
303.93424
304.71893
304.58321
304.67821
305.04594
303.01787
302.43167
302.28446
302.26835
302.16427
302.0331
301.8743
301.73625
301.60044
301.47775
301.37098
301.2773
301.199
301.1365
301.09046
301.06048
301.04672
301.70831
301.71422
301.72353
301.73646
301.75349
301.77507
301.80155
301.83371
301.87347
301.92039
301.97588
302.04583
302.15461
302.24143
302.80343
304.1448
304.65632
304.66745
304.93626
302.32761
302.27086
302.16663
302.02332
301.87646
301.7446
301.61242
301.49545
301.39254
301.30275
301.22792
301.16831
301.12445
301.09607
301.08309
301.77716
301.78369
301.79355
301.80682
301.82385
301.84503
301.87068
301.90135
301.93939
301.98422
302.03678
302.1001
302.19232
302.30394
302.46851
303.02428
303.69883
304.75742
304.6957
304.8173
305.54686
302.53247
302.35075
302.26322
302.15485
302.01393
301.88243
301.75032
301.62491
301.51293
301.41398
301.32806
301.2566
301.19973
301.15789
301.13099
301.11872
301.84838
301.8556
301.86609
301.8798
301.89699
301.918
301.94308
301.97264
302.00932
302.05257
302.10304
302.16226
302.24547
302.32916
302.47544
302.78912
303.11239
303.50693
304.44739
305.01928
304.79809
304.81513
305.01974
302.44319
302.39658
302.26263
302.15039
302.01545
301.88665
301.75689
301.63774
301.53035
301.43538
301.35325
301.285
301.2307
301.19075
301.16522
301.15359
301.92216
301.93008
301.94124
301.95546
301.97295
301.99397
302.01875
302.0476
302.08325
302.12539
302.17445
302.23141
302.30759
302.38997
302.49561
302.66753
302.98392
303.23232
303.62254
304.2311
304.92154
304.88725
305.00087
305.68188
302.63295
302.4628
302.38939
302.26489
302.14992
302.01477
301.89065
301.76428
301.65103
301.54794
301.45691
301.37839
301.31317
301.26128
301.22309
301.1988
301.18775
301.99869
302.00726
302.0191
302.03388
302.05176
302.07294
302.09765
302.12615
302.16108
302.20258
302.25085
302.30675
302.37769
302.46215
302.55186
302.67723
302.86734
303.1622
303.46833
303.71798
304.08105
305.02331
305.11587
305.02017
305.01796
305.15147
302.92808
302.54236
302.507
302.38098
302.26532
302.13884
302.0104
301.89494
301.77316
301.66476
301.56579
301.47858
301.40347
301.34107
301.29139
301.25483
301.23168
301.22114
302.07818
302.08733
302.09981
302.11516
302.13348
302.15494
302.17975
302.20818
302.24274
302.28397
302.33205
302.38763
302.45536
302.53871
302.63007
302.7284
302.87433
303.06819
303.34569
303.63647
303.83023
304.15169
304.53372
304.94358
305.06724
305.13251
305.35042
305.90218
302.66316
302.59642
302.49335
302.3718
302.2582
302.13972
302.0178
301.89936
301.78341
301.67917
301.58417
301.50057
301.42863
301.36882
301.32115
301.2861
301.26395
301.25385
302.16085
302.1705
302.18356
302.19945
302.21822
302.24003
302.26508
302.29364
302.32816
302.36953
302.41782
302.4736
302.53972
302.6212
302.71232
302.81376
302.928
303.08515
303.28294
303.53507
303.7956
304.07666
304.27851
304.802
305.01488
305.19228
305.31317
305.47793
305.6331
303.02437
302.64285
302.57522
302.4789
302.36396
302.25312
302.14043
302.0104
301.90555
301.79458
301.69419
301.60298
301.52275
301.45372
301.39625
301.35042
301.31674
301.29548
301.28576
302.24697
302.25702
302.27059
302.28697
302.30616
302.32833
302.35369
302.38253
302.41731
302.45913
302.50798
302.56433
302.62996
302.70981
302.8003
302.90211
303.01738
303.14788
303.31229
303.50647
303.72676
303.96132
304.28008
304.63625
304.92594
305.12909
305.30441
305.45204
305.54482
305.6839
305.91339
302.74867
302.67094
302.57991
302.48509
302.36666
302.25605
302.14272
302.018
301.91335
301.80718
301.71028
301.62259
301.54543
301.47903
301.42368
301.37948
301.34703
301.32653
301.31711
302.33686
302.34722
302.3612
302.37797
302.39752
302.42002
302.44571
302.47491
302.51019
302.55269
302.60232
302.6595
302.72541
302.80425
302.89413
302.99542
303.11032
303.2383
303.38613
303.54935
303.74588
303.95508
304.22611
304.53769
304.82867
305.0751
305.27293
305.42517
305.53605
305.59155
305.60602
305.55555
305.7761
303.06382
302.72489
302.66981
302.59359
302.48916
302.37059
302.26018
302.14708
302.02732
301.92269
301.82077
301.72706
301.64257
301.56818
301.50413
301.45066
301.40791
301.3766
301.35673
301.34754
302.43091
302.44151
302.45579
302.47284
302.49265
302.51541
302.5414
302.57099
302.60688
302.65016
302.70072
302.75892
302.82555
302.90391
302.9934
303.0944
303.20806
303.33461
303.47985
303.63972
303.81932
304.0136
304.25152
304.54142
304.82573
305.07212
305.28378
305.42821
305.50958
305.53221
305.499
305.44175
305.30162
305.1183
302.85399
302.77757
302.68425
302.60672
302.49263
302.37675
302.26495
302.15157
302.0376
301.93446
301.83604
301.74528
301.66364
301.5917
301.52972
301.47789
301.43641
301.4061
301.38672
301.37769
302.52956
302.54032
302.5548
302.57201
302.59194
302.61485
302.64106
302.67102
302.70751
302.7515
302.80299
302.86224
302.9298
303.00831
303.09781
303.19847
303.31222
303.43888
303.58292
303.74276
303.92324
304.11917
304.34197
304.59715
304.86471
305.11455
305.32271
305.44964
305.50326
305.48962
305.41779
305.30447
305.15927
304.99774
304.66927
304.324
303.126
302.86183
302.78908
302.70936
302.61576
302.49761
302.38212
302.26962
302.15847
302.04906
301.94769
301.85212
301.76396
301.68477
301.61497
301.55477
301.50437
301.46398
301.43458
301.41558
301.40666
302.63338
302.64425
302.65883
302.67608
302.69601
302.71893
302.74522
302.77542
302.81241
302.85709
302.9094
302.96963
303.0383
303.11729
303.20713
303.30869
303.42311
303.55091
303.69572
303.84983
304.03302
304.23892
304.46335
304.70308
304.9563
305.19489
305.38197
305.48283
305.50633
305.45684
305.34159
305.17665
304.98113
304.76627
304.48218
303.93304
303.67082
303.49506
302.9862
302.92603
302.81115
302.72897
302.62118
302.50305
302.38901
302.27783
302.16915
302.06298
301.96346
301.87032
301.78449
301.70744
301.63947
301.5808
301.5316
301.49212
301.46354
301.44481
301.43591
302.74268
302.75363
302.76826
302.78544
302.80524
302.82801
302.85424
302.8845
302.92181
302.96704
303.0201
303.08129
303.15107
303.23085
303.32182
303.42467
303.54062
303.67082
303.81835
303.97615
304.16332
304.37138
304.59371
304.82878
305.07225
305.28605
305.43533
305.51582
305.51009
305.42427
305.26276
305.04698
304.80104
304.5346
304.22879
303.86767
303.31986
303.14033
303.05906
302.94466
302.83848
302.74583
302.62992
302.51305
302.40002
302.28966
302.18243
302.07832
301.98026
301.88896
301.80497
301.7296
301.66308
301.60563
301.5574
301.51879
301.49082
301.47226
301.46336
302.85816
302.86921
302.88386
302.90093
302.92049
302.943
302.96903
302.99922
303.03646
303.08209
303.13575
303.19777
303.26848
303.34955
303.44192
303.5466
303.66504
303.79884
303.95009
304.11287
304.30379
304.51129
304.72825
304.95823
305.18305
305.36488
305.48299
305.53092
305.50168
305.38567
305.18609
304.94475
304.67329
304.40054
304.10836
303.776
303.44796
303.20703
303.06804
302.97111
302.86465
302.76093
302.64216
302.52652
302.41443
302.30477
302.19877
302.09645
301.99988
301.91025
301.82793
301.75405
301.68882
301.63244
301.58505
301.54721
301.51967
301.50118
301.49221
302.97921
302.99038
303.00509
303.02205
303.04137
303.06356
303.08926
303.11926
303.15595
303.2018
303.25602
303.31879
303.39067
303.47324
303.56751
303.67475
303.79663
303.92686
304.083
304.25772
304.44893
304.64804
304.85749
305.07054
305.2615
305.40711
305.49879
305.53098
305.49131
305.36117
305.13977
304.87865
304.59538
304.31782
304.02687
303.71258
303.4085
303.23124
303.10253
303.00666
302.89617
302.78269
302.66284
302.54686
302.43417
302.324
302.21797
302.11621
302.02026
301.93145
301.85009
301.77707
301.7126
301.65684
301.60998
301.57285
301.54554
301.52703
301.51795
303.10693
303.11824
303.13306
303.15005
303.16916
303.19106
303.21648
303.24626
303.28213
303.32791
303.38234
303.44566
303.51856
303.60266
303.69905
303.8093
303.93511
304.07749
304.22925
304.40394
304.58451
304.76877
304.95061
305.12324
305.26679
305.37735
305.45377
305.48891
305.46187
305.34332
305.12317
304.85458
304.56683
304.2859
304.0012
303.68691
303.42701
303.26508
303.14557
303.0381
302.92382
302.80323
302.68327
302.56705
302.45432
302.34449
302.23912
302.13845
302.04363
301.95595
301.87569
301.80365
301.74003
301.68497
301.63868
301.60219
301.57502
301.55643
301.54719
303.23723
303.24863
303.26352
303.28075
303.30013
303.32197
303.34717
303.37676
303.4122
303.45705
303.51205
303.57613
303.65023
303.73645
303.8357
303.94932
304.0705
304.21528
304.3731
304.53403
304.68712
304.8253
304.9429
305.04867
305.13735
305.21618
305.29385
305.36031
305.38698
305.31905
305.12749
304.8614
304.56223
304.26878
303.988
303.70715
303.47787
303.32426
303.20173
303.0836
302.96435
302.83852
302.71708
302.59881
302.48387
302.37209
302.26517
302.16349
302.06799
301.97992
301.89956
301.82747
301.76381
301.70872
301.66274
301.62636
301.59904
301.5802
301.57074
303.37475
303.38613
303.40089
303.41811
303.43776
303.46013
303.48587
303.51575
303.55121
303.59483
303.64918
303.71383
303.78863
303.87558
303.97653
304.09218
304.21373
304.35408
304.49418
304.61052
304.69319
304.72025
304.73963
304.74244
304.76804
304.82799
304.92811
305.06917
305.2084
305.25638
305.13833
304.88503
304.59586
304.30016
304.01956
303.75188
303.53962
303.37565
303.24813
303.12077
302.99601
302.8662
302.74317
302.62356
302.50797
302.39657
302.29027
302.18948
302.09496
302.00779
301.9282
301.85675
301.7937
301.73912
301.69379
301.65768
301.6303
301.61127
301.60157
303.50342
303.51478
303.52943
303.54666
303.5665
303.58928
303.6156
303.64632
303.68265
303.72656
303.78007
303.84483
303.92093
304.00892
304.10987
304.21608
304.34003
304.46275
304.55086
304.56288
304.44763
304.22457
304.08628
303.98574
303.96376
304.01754
304.14898
304.39528
304.78705
305.10376
305.13369
304.94754
304.67316
304.37533
304.09438
303.84103
303.62735
303.46199
303.32235
303.18578
303.05352
302.91962
302.79296
302.66991
302.55079
302.4354
302.32531
302.22141
302.12437
302.03516
301.95409
301.88152
301.81736
301.76228
301.71644
301.67971
301.65167
301.63211
301.622
303.64809
303.65934
303.67376
303.6908
303.71051
303.73319
303.75943
303.79007
303.82629
303.86985
303.92261
303.98623
304.06194
304.15068
304.25203
304.35439
304.46326
304.53745
304.49492
304.21254
303.60267
302.78925
302.6165
302.50065
302.45364
302.51101
302.615
302.8611
303.80017
304.75493
305.0716
305.01634
304.75897
304.45324
304.17011
303.91611
303.69651
303.52314
303.37394
303.23025
303.09209
302.95456
302.82481
302.69934
302.5784
302.46299
302.354
302.25124
302.1553
302.06704
301.98668
301.91451
301.85107
301.79662
301.75114
301.71447
301.68631
301.66656
301.65621
303.74817
303.75993
303.77495
303.79293
303.81402
303.83855
303.86707
303.90036
303.93946
303.98569
304.04042
304.10464
304.17868
304.26184
304.34179
304.42631
304.48683
304.47116
304.24529
303.63247
301.15972
299.99817
299.94128