/*--------------------------------*- C++ -*----------------------------------*\
  =========                 |
  \\      /  F ield         | OpenFOAM: The Open Source CFD Toolbox
   \\    /   O peration     | Website:  https://openfoam.org
    \\  /    A nd           | Version:  8
     \\/     M anipulation  |
\*---------------------------------------------------------------------------*/
FoamFile
{
    version     2.0;
    format      ascii;
    class       volScalarField;
    location    "10800/air";
    object      w;
}
// * * * * * * * * * * * * * * * * * * * * * * * * * * * * * * * * * * * * * //

dimensions      [0 0 0 0 0 0 0];

internalField   nonuniform List<scalar> 
167754
(
0.017965004
0.017965004
0.017965005
0.017965007
0.017965009
0.017965011
0.017965012
0.017965013
0.017965013
0.017965013
0.017965013
0.017965013
0.017965013
0.017965013
0.017965013
0.017965013
0.017965013
0.017965013
0.017965013
0.017965013
0.017965013
0.017965012
0.017965012
0.017965012
0.017965012
0.017965012
0.017965011
0.017965011
0.017965012
0.017965012
0.017965012
0.017965012
0.017965013
0.017965013
0.017965013
0.017965013
0.017965013
0.017965013
0.017965013
0.017965013
0.017965013
0.017965013
0.017965013
0.017965013
0.017965013
0.017965013
0.017965013
0.017965013
0.017965012
0.01796501
0.017965006
0.017964998
0.017964986
0.017964971
0.017964952
0.017964934
0.017964921
0.017964915
0.017964916
0.017964877
0.017964883
0.017964904
0.017964932
0.01796496
0.017964982
0.017964996
0.017965004
0.017965009
0.017965011
0.017965012
0.017965012
0.017965012
0.017965012
0.017965012
0.017965011
0.01796501
0.017965009
0.017965007
0.017965005
0.017965002
0.017964998
0.017964994
0.01796499
0.017964987
0.017964984
0.017964983
0.017964983
0.017964984
0.017964987
0.017964992
0.017964997
0.017965002
0.017965005
0.017965008
0.01796501
0.017965011
0.017965012
0.017965012
0.017965013
0.017965013
0.017965013
0.017965013
0.017965013
0.017965013
0.017965013
0.017965012
0.017965008
0.017964998
0.017964973
0.017964917
0.017964814
0.017964657
0.017964457
0.017964246
0.017964055
0.017963917
0.017963851
0.017963859
0.017963833
0.017963888
0.017964057
0.017964296
0.017964541
0.017964739
0.01796487
0.017964944
0.01796498
0.017964997
0.017965003
0.017965006
0.017965005
0.017965002
0.017964997
0.01796499
0.01796498
0.017964968
0.017964953
0.017964934
0.017964909
0.017964863
0.017964798
0.017964754
0.017964722
0.017964686
0.017964668
0.017964665
0.01796468
0.017964718
0.017964777
0.01796483
0.017964878
0.017964916
0.017964946
0.017964968
0.017964983
0.017964994
0.017965001
0.017965006
0.017965009
0.017965011
0.017965012
0.017965012
0.017965012
0.01796501
0.017965002
0.017964975
0.017964891
0.017964677
0.017964252
0.017963597
0.017962761
0.017961864
0.017961027
0.017960344
0.017959876
0.017959651
0.017959655
0.017959214
0.017959422
0.017960062
0.017961033
0.01796215
0.017963201
0.017964012
0.017964523
0.017964786
0.017964901
0.017964945
0.017964955
0.017964946
0.017964921
0.017964881
0.017964827
0.017964762
0.01796469
0.017964614
0.017964493
0.017964812
0.017964578
0.0179631
0.017962611
0.017962447
0.01796195
0.017961794
0.017961776
0.017961903
0.017962291
0.017962822
0.017963297
0.017963724
0.017964077
0.017964353
0.017964559
0.017964709
0.017964814
0.017964886
0.017964934
0.017964965
0.017964985
0.017964997
0.017965003
0.017965003
0.017964993
0.017964944
0.017964763
0.017964245
0.017963182
0.017961561
0.017959577
0.017957481
0.017955499
0.017953814
0.017952522
0.017951664
0.017951243
0.017951212
0.017948234
0.017948683
0.017949989
0.017952068
0.017954702
0.017957553
0.0179602
0.017962264
0.017963592
0.017964278
0.017964555
0.017964612
0.017964538
0.017964364
0.017964104
0.017963782
0.017963443
0.017963112
0.017964281
0.017963995
0.017963365
0.017962255
0.017959824
0.0179488
0.017957732
0.017945233
0.017944634
0.017944417
0.017944545
0.017946918
0.017949994
0.017952842
0.017955587
0.017957968
0.01795991
0.017961421
0.017962549
0.017963365
0.017963938
0.017964331
0.017964593
0.017964761
0.017964864
0.017964921
0.01796494
0.017964892
0.017964625
0.017963763
0.017961888
0.017958979
0.017955439
0.017951767
0.017948316
0.017945315
0.017942905
0.017941122
0.017939961
0.017939385
0.017939315
0.017930629
0.017931288
0.017933149
0.01793619
0.01794027
0.017945106
0.017950215
0.017954919
0.017958642
0.017961045
0.017962228
0.017962512
0.017962148
0.017961243
0.017959953
0.017958542
0.017957353
0.017961547
0.017960471
0.017959311
0.017959256
0.01795146
0.017938783
0.017934708
0.017926836
0.01792486
0.017924456
0.017923901
0.017886117
0.017894112
0.017903352
0.017912213
0.017921898
0.017930862
0.01793877
0.017945466
0.017950894
0.017955125
0.017958306
0.017960613
0.017962221
0.017963294
0.017963974
0.017964371
0.017964537
0.017964348
0.01796331
0.017960738
0.017956482
0.017951152
0.017945589
0.017940399
0.017935859
0.017932129
0.017929242
0.017927162
0.01792583
0.017925174
0.017925095
0.017907623
0.017908384
0.017910536
0.01791411
0.017919066
0.01792525
0.017932295
0.017939451
0.017945799
0.017950549
0.01795286
0.017953371
0.01795201
0.017949024
0.017944971
0.017941621
0.017953314
0.01795207
0.017954626
0.017956038
0.017912147
0.017868465
0.017862637
0.017839044
0.017835233
0.017822939
0.017823837
0.017834359
0.017848197
0.017862756
0.017820357
0.017842567
0.017862774
0.017881503
0.017898548
0.017913509
0.017926301
0.017936927
0.017945457
0.017951969
0.017956641
0.017959772
0.017961686
0.017962568
0.017962104
0.017959493
0.01795432
0.017947267
0.017939609
0.017932372
0.017926056
0.017920817
0.017916679
0.017913566
0.017911377
0.017910008
0.017909359
0.017909313
0.017880433
0.017881166
0.017883328
0.017886971
0.017892115
0.017898716
0.017906531
0.01791484
0.017922511
0.017941284
0.017929645
0.017928985
0.01792499
0.017918179
0.017909687
0.017933071
0.017937231
0.017945776
0.01776561
0.017751403
0.017805797
0.017704642
0.017707117
0.01768802
0.017710875
0.017746716
0.017781912
0.017746617
0.017779039
0.017810694
0.017838585
0.017863683
0.017886197
0.017906231
0.017923225
0.017936658
0.017946403
0.017952719
0.017955904
0.017955561
0.017951217
0.017943464
0.017934003
0.017924572
0.017916206
0.017909224
0.017903662
0.017899408
0.017896298
0.017894173
0.017892894
0.017892337
0.017892372
0.017849817
0.017850405
0.017852329
0.017855631
0.017860334
0.017866425
0.017873713
0.017881414
0.017908698
0.017911161
0.017911605
0.017909263
0.017876398
0.017864733
0.017849149
0.017888361
0.01792242
0.017611555
0.017599727
0.017725085
0.017568023
0.017591397
0.017601171
0.017659456
0.017707345
0.017750468
0.017728281
0.01776594
0.01780175
0.017836678
0.017868568
0.017895972
0.017917497
0.01793236
0.017940557
0.017941869
0.017936894
0.017927607
0.017916696
0.017906272
0.017897368
0.017890184
0.017884639
0.017880535
0.017877638
0.01787574
0.017874673
0.017874293
0.017874456
0.017816146
0.017816494
0.017817979
0.017820599
0.017824322
0.017829069
0.017834507
0.017839661
0.017867915
0.017873735
0.017843841
0.017841616
0.017847392
0.017839753
0.017825114
0.017821167
0.017878232
0.017529971
0.017412404
0.017475908
0.01751075
0.017558905
0.0175795
0.017647679
0.017700556
0.017744224
0.017742288
0.017790579
0.017835364
0.017872854
0.017899948
0.017915541
0.017920266
0.01791624
0.017906819
0.017895547
0.017884904
0.017876019
0.01786907
0.017863859
0.01786015
0.017857663
0.017856149
0.017855412
0.017855294
0.017855632
0.017779554
0.017779589
0.017780479
0.017782149
0.017784464
0.017787178
0.017789722
0.017818629
0.017826873
0.017851205
0.017763794
0.01774821
0.017736738
0.017741275
0.017203597
0.017181277
0.017333746
0.017515281
0.017571852
0.017592672
0.017662755
0.017730418
0.017767375
0.017822288
0.017866745
0.017887946
0.017894323
0.017891266
0.01788195
0.01787096
0.017860661
0.017852225
0.017845853
0.017841307
0.017838261
0.017836381
0.017835402
0.017835114
0.017835343
0.017835903
0.017740043
0.017739716
0.0177399
0.017740419
0.017740972
0.017741085
0.017768351
0.017769483
0.01779522
0.017676595
0.017660001
0.017667531
0.016950585
0.017003521
0.017531324
0.01760705
0.017708126
0.01779229
0.017834409
0.017870669
0.017882248
0.017881913
0.017854077
0.017843556
0.017833903
0.017825918
0.017820401
0.017816812
0.017814722
0.017813724
0.017813451
0.017813735
0.017814398
0.017815231
0.017697538
0.017696825
0.017696234
0.017695433
0.017693743
0.017690038
0.017714664
0.01772317
0.017585716
0.01679329
0.016689299
0.016810497
0.017634833
0.017762799
0.017816916
0.017832842
0.017849971
0.017848216
0.017841715
0.017832173
0.017822489
0.017796353
0.017792275
0.017790159
0.017789231
0.0177894
0.017790141
0.017791165
0.017792376
0.017793544
0.017651919
0.017650818
0.017649416
0.017647121
0.01764282
0.017665503
0.017663618
0.017692872
0.017516534
0.01645758
0.016498723
0.017644552
0.017757457
0.017823909
0.017811541
0.017794523
0.017785264
0.017780538
0.01777752
0.017776085
0.017761053
0.017762828
0.017765057
0.017767187
0.017769134
0.017770727
0.017603032
0.017601547
0.017599283
0.017595259
0.01758796
0.017609035
0.017628882
0.016622534
0.016275321
0.01630531
0.017633149
0.017672707
0.017747066
0.017757972
0.017748829
0.017739373
0.017739092
0.017744086
0.017748453
0.017737332
0.017741399
0.017744465
0.017746632
0.017550711
0.01754883
0.017545598
0.017539652
0.017562443
0.017557642
0.01759172
0.016417294
0.016262838
0.016143698
0.017636971
0.017682812
0.017726113
0.017713847
0.017714327
0.017715579
0.017722612
0.017713281
0.017718136
0.017721095
0.017494813
0.017492458
0.01748799
0.017479378
0.017503541
0.017525452
0.0161431
0.016063972
0.016007935
0.017645186
0.017678011
0.017701605
0.017689247
0.017682741
0.017690044
0.017693995
0.017435314
0.017432285
0.017425657
0.017450932
0.017448885
0.017492906
0.016051435
0.016004322
0.015921863
0.017596765
0.017638149
0.017661701
0.017666204
0.017653557
0.017650712
0.017660257
0.017665273
0.017372428
0.017368534
0.017358897
0.017379239
0.01738017
0.015973878
0.015965059
0.015891279
0.015837428
0.017579336
0.017617377
0.017642261
0.017623165
0.017617143
0.017617479
0.017628888
0.017634931
0.017306611
0.017301932
0.017290365
0.017306428
0.017298331
0.017351259
0.015943221
0.015883853
0.015790121
0.015772337
0.01755434
0.017597163
0.017563971
0.017560976
0.017583175
0.017596001
0.017602988
0.017238455
0.017233274
0.017221265
0.017194822
0.017213789
0.017232899
0.015907915
0.015894023
0.015804524
0.015725785
0.017484083
0.017512123
0.017568125
0.017522605
0.01752401
0.017547165
0.017561517
0.017569445
0.017168589
0.017163148
0.017150913
0.017126101
0.017133887
0.01711523
0.015901357
0.015837079
0.015732975
0.015677094
0.017432041
0.01744648
0.017523376
0.017477487
0.017483975
0.017509323
0.017525391
0.017534305
0.017097659
0.017092089
0.017079705
0.017055658
0.017059007
0.017033757
0.01705669
0.015895539
0.015870087
0.01577791
0.015663677
0.01550676
0.015271732
0.015074825
0.01492379
0.014795061
0.014684102
0.014582027
0.014494421
0.014416714
0.014342356
0.014287713
0.014336208
0.014520582
0.014726296
0.014937671
0.015202457
0.015551008
0.015949828
0.016343562
0.01680941
0.01721911
0.017313021
0.017348569
0.017435852
0.017429168
0.017441343
0.017469658
0.017487624
0.017497579
0.017026268
0.017020636
0.017008249
0.016985293
0.01694413
0.016950239
0.016966661
0.015901857
0.01582393
0.015705641
0.015591537
0.01539839
0.01523218
0.015019493
0.014868586
0.014750313
0.014657305
0.014560597
0.014480016
0.014410616
0.014330749
0.014268305
0.014265889
0.014314838
0.014365036
0.014423608
0.014501347
0.014778297
0.015294479
0.015907928
0.016518342
0.016984048
0.017151332
0.017198109
0.017305008
0.017398448
0.017379686
0.017396607
0.017428274
0.017448254
0.017459302
0.016954866
0.016949231
0.0169369
0.016914608
0.016876227
0.016872839
0.016869946
0.015901865
0.01586734
0.015768951
0.015627212
0.015476045
0.015330769
0.015158554
0.014991161
0.01487739
0.014489959
0.01427264
0.014244101
0.014111487
0.014124332
0.015307889
0.015871135
0.016533687
0.016909421
0.016982258
0.017128536
0.017348957
0.017328579
0.017350242
0.017385302
0.017407375
0.017419545
0.016883826
0.016878232
0.016865965
0.016844055
0.01680642
0.016798124
0.016756221
0.015906361
0.015892669
0.015796179
0.015679902
0.015560904
0.015472998
0.015252886
0.015169429
0.015056647
0.014968764
0.014904143
0.014831864
0.014751937
0.01463124
0.014483539
0.014179426
0.014059879
0.014061729
0.014070086
0.014077909
0.014098362
0.014090473
0.014244348
0.014439086
0.014935864
0.015671161
0.016290283
0.016421089
0.016735539
0.016913183
0.01728723
0.017276358
0.017302853
0.017340969
0.017365134
0.017378417
0.016813521
0.016807936
0.016795722
0.016774129
0.016737617
0.016727877
0.016681679
0.016696487
0.015913357
0.015817109
0.015681939
0.015528709
0.015438674
0.01539745
0.015267385
0.015190649
0.014799511
0.014745811
0.014680154
0.014535615
0.014112435
0.014101039
0.014178966
0.014204848
0.014186949
0.014151201
0.014121467
0.014119712
0.014276515
0.014686835
0.015249885
0.015799368
0.016313331
0.016500579
0.016759526
0.017225708
0.017224939
0.017255206
0.0172957
0.017321748
0.017336071
0.016744202
0.016738562
0.016726421
0.016705285
0.016670928
0.016615885
0.016607401
0.016599421
0.015913311
0.015881062
0.01571065
0.015520604
0.015354729
0.015298493
0.015311046
0.01527652
0.015217263
0.014919891
0.014799832
0.014708682
0.014627169
0.014547864
0.014446801
0.014366976
0.014344024
0.014319871
0.014287558
0.01425174
0.014210769
0.01416699
0.01417224
0.014444111
0.01496895
0.015581507
0.016045024
0.016264148
0.016584397
0.017138481
0.017148336
0.017208125
0.017249823
0.017277438
0.017292685
0.016675955
0.016670259
0.016658231
0.016637601
0.016605093
0.016556538
0.016494131
0.016484042
0.016409661
0.016294547
0.015952376
0.015851282
0.015684808
0.015467383
0.015335376
0.01494205
0.014863983
0.014779409
0.014700802
0.014627136
0.014560629
0.014504521
0.014456556
0.014411623
0.014367774
0.014322869
0.014277595
0.014219365
0.014111658
0.014206466
0.014433313
0.015044883
0.01571069
0.016016694
0.016346836
0.017079294
0.017100832
0.017160369
0.017203357
0.017232391
0.017248449
0.016608854
0.016603143
0.016591282
0.0165712
0.016540262
0.016495609
0.016437023
0.016358141
0.016324929
0.016186577
0.015953653
0.015815945
0.015701447
0.015532266
0.015416495
0.015069408
0.014961144
0.014902439
0.014836006
0.014766459
0.014698986
0.014636324
0.01457926
0.014526319
0.014476569
0.014428748
0.014380786
0.01433632
0.014273293
0.014068146
0.014041567
0.01408173
0.014533067
0.015358958
0.015741544
0.015605725
0.015210409
0.015271325
0.017016862
0.017050658
0.017111943
0.017156444
0.017186791
0.01720356
0.016542959
0.016537277
0.016525634
0.016506125
0.016476526
0.016434533
0.016378936
0.016305121
0.016205397
0.016071966
0.015969427
0.015829536
0.015715451
0.015578852
0.01548016
0.015050983
0.014992381
0.014937398
0.014877515
0.014815219
0.014753457
0.014694235
0.014638202
0.014584315
0.014532994
0.014483426
0.014433997
0.01439171
0.014322483
0.014008322
0.013965856
0.013965988
0.014268032
0.015086273
0.015428229
0.015209362
0.01521302
0.015293107
0.01537711
0.015461021
0.015540024
0.016971431
0.016954237
0.016999155
0.017063158
0.017109296
0.017140848
0.017158218
0.016478273
0.016472651
0.01646125
0.016442303
0.01641386
0.016373886
0.016320682
0.016250261
0.016152935
0.016073397
0.015935784
0.015801464
0.015660652
0.015569731
0.015496843
0.01505214
0.015005785
0.014958657
0.014905708
0.01484997
0.01479366
0.01473841
0.014684965
0.014632827
0.014582106
0.01453279
0.014483813
0.014444796
0.014369363
0.014007477
0.014000343
0.013981897
0.014161378
0.014800577
0.015207847
0.015261242
0.015341632
0.015444643
0.015547353
0.015639545
0.015713001
0.015777642
0.016906664
0.016893003
0.016947749
0.017014528
0.01706217
0.017094768
0.017112612
0.016414727
0.016409177
0.01639802
0.016379594
0.016352146
0.016313801
0.016262593
0.016194508
0.016097916
0.016034219
0.015854118
0.015660075
0.015552386
0.015489936
0.01546265
0.015051236
0.015009591
0.014968793
0.014922041
0.01487221
0.014821053
0.014769979
0.014719838
0.014670768
0.014622451
0.0145751
0.014528674
0.014496315
0.014427094
0.014363196
0.014323625
0.014174632
0.014061255
0.014059951
0.014327287
0.015433593
0.015512453
0.015600914
0.015722625
0.015814048
0.015885298
0.015910052
0.015946381
0.016797922
0.016834339
0.01689774
0.016966465
0.017015322
0.017048685
0.017066882
0.016352178
0.0163467
0.016335768
0.016317807
0.016291208
0.016254212
0.016204722
0.016138635
0.016043844
0.015981651
0.015796791
0.015583909
0.015413671
0.015392546
0.015385306
0.0150447
0.015002761
0.014966246
0.014924598
0.01487987
0.014833482
0.014786606
0.014740093
0.0146943
0.01464927
0.014605057
0.014561758
0.014535728
0.014476872
0.01441569
0.014377774
0.014301464
0.014198793
0.014137045
0.015710396
0.015799509
0.015870253
0.015971513
0.016043862
0.01650738
0.016743612
0.016849692
0.016919205
0.016968858
0.017002708
0.017021111
0.016290419
0.016285004
0.01627427
0.016256709
0.016230832
0.016194984
0.016147054
0.016083145
0.015993498
0.015855722
0.01575805
0.015556746
0.015344771
0.01531525
0.015316644
0.015029065
0.014997074
0.014962706
0.014924834
0.014884845
0.014843442
0.014801373
0.01475934
0.014717661
0.014676275
0.014634966
0.014593302
0.014553191
0.014507499
0.014453412
0.014414412
0.014364359
0.014281361
0.015977621
0.016031777
0.016316902
0.016688397
0.01680238
0.016872633
0.016922753
0.016956861
0.016975356
0.016229184
0.016223823
0.01621326
0.016196043
0.016170793
0.016135961
0.016089525
0.016027927
0.015943203
0.0158171
0.015726747
0.015489485
0.015282995
0.0152475
0.015229689
0.015195393
0.015159807
0.015118786
0.015069402
0.015018277
0.014982523
0.01493903
0.014903553
0.014868388
0.014832542
0.014795953
0.014758888
0.014721663
0.014684793
0.014647989
0.014610182
0.014570769
0.014527995
0.014484724
0.01447798
0.014398722
0.014331413
0.01608784
0.016318461
0.016646544
0.016756477
0.016826636
0.016876951
0.016911154
0.016929665
0.016168162
0.016162848
0.016152437
0.01613553
0.016110846
0.016076959
0.016031996
0.015972779
0.015892672
0.015775964
0.015693797
0.015476556
0.015252944
0.015155711
0.015131942
0.015097708
0.015091073
0.015065869
0.015027897
0.014984805
0.014952483
0.01491881
0.014888117
0.014856497
0.014823222
0.014788061
0.014753372
0.014721022
0.014690053
0.014656314
0.014617407
0.014574461
0.01453386
0.014509892
0.01449451
0.014405199
0.016227443
0.016450816
0.016613486
0.016712922
0.016781577
0.016831616
0.016865702
0.016884146
0.016107008
0.016101739
0.016091477
0.016074867
0.01605073
0.016017771
0.015974303
0.01591755
0.015841981
0.015734327
0.015659715
0.015464985
0.015257197
0.015038506
0.014981842
0.014954387
0.014977893
0.014979145
0.014947769
0.01490835
0.014885666
0.014865016
0.014850241
0.014833239
0.014812027
0.014787505
0.014767672
0.014734928
0.014701094
0.014681098
0.014655202
0.01456916
0.014523938
0.014496084
0.014429148
0.014382146
0.016246093
0.016306217
0.016454809
0.01658396
0.016672926
0.016738305
0.016787182
0.016820766
0.016838997
0.016045369
0.016040154
0.016030052
0.016013755
0.01599018
0.015958177
0.015916273
0.01586213
0.015791374
0.015694847
0.015558321
0.015457446
0.015247031
0.015054776
0.014927648
0.014863872
0.014872987
0.01487649
0.014844089
0.01479083
0.014761952
0.014715469
0.014680579
0.014666335
0.014646623
0.014650717
0.014639704
0.014629773
0.014641599
0.014633725
0.014598126
0.014529394
0.014508271
0.014418619
0.014354854
0.016233342
0.016274101
0.016348344
0.016448225
0.016554826
0.016635262
0.016696955
0.016743973
0.016776622
0.016794454
0.015982885
0.015977741
0.015967827
0.015951878
0.015928917
0.015897939
0.015857708
0.015806349
0.015740555
0.015653785
0.015534541
0.015447313
0.015262867
0.015106894
0.014999152
0.014925585
0.014877307
0.014836742
0.014777445
0.014715493
0.014667714
0.014636211
0.014613199
0.014593454
0.014570431
0.014549244
0.014530487
0.014515838
0.014519665
0.014518221
0.01449891
0.014473046
0.014441062
0.014360245
0.014296366
0.016219734
0.016257894
0.016339334
0.016432485
0.016525027
0.01659896
0.016657229
0.016702094
0.016733477
0.016750728
0.015919249
0.015914199
0.015904507
0.015888955
0.015866671
0.015836807
0.01579837
0.015749934
0.015689104
0.015611157
0.015506563
0.015429505
0.015246347
0.015106441
0.015028833
0.014957651
0.014894628
0.014842249
0.014796766
0.014752966
0.014710671
0.014671602
0.014636033
0.014603499
0.014573202
0.014544416
0.014516477
0.014490212
0.01446839
0.014451634
0.014438859
0.014399523
0.014396344
0.014358286
0.01429957
0.016164138
0.016199811
0.016239834
0.01632273
0.016410912
0.016494599
0.016563613
0.016618855
0.016661532
0.016691458
0.01670799
0.015854229
0.01584929
0.015839845
0.015824734
0.015803191
0.015774523
0.01573797
0.015692502
0.015636446
0.01556649
0.015474728
0.015411542
0.015269311
0.013910779
0.014079894
0.01421661
0.014276477
0.014281115
0.014252611
0.014227495
0.016123947
0.016142285
0.016217623
0.016301699
0.016386134
0.016463946
0.016529117
0.016581678
0.016622243
0.016650644
0.01666637
0.015787687
0.015782854
0.015773656
0.015759006
0.015738245
0.01571082
0.015676172
0.01563359
0.015581932
0.015518878
0.015438257
0.015389576
0.01527518
0.013793919
0.013822744
0.013828044
0.013807258
0.01422272
0.014226008
0.014207753
0.01418329
0.016065979
0.016089403
0.016116377
0.016194657
0.01627858
0.016359933
0.016433495
0.016495493
0.016545627
0.016584192
0.016611089
0.016625987
0.015719593
0.015714819
0.015705823
0.015691618
0.015671642
0.01564546
0.015612673
0.015572808
0.015525092
0.015467883
0.015396309
0.015359263
0.015266733
0.015222954
0.013797778
0.013809222
0.013788575
0.014193159
0.014189225
0.014169924
0.014312063
0.015073371
0.016016177
0.01601952
0.016090838
0.016171854
0.016254853
0.016333425
0.016403586
0.016462805
0.016510685
0.016547366
0.016572846
0.016586977
0.015650002
0.015645181
0.015636296
0.01562248
0.015603255
0.015578273
0.015547256
0.015509897
0.015465674
0.015413438
0.015350074
0.015268816
0.015239646
0.015195949
0.013761807
0.013788963
0.013783276
0.013765882
0.014152949
0.014299417
0.015080661
0.015209605
0.015305307
0.015959357
0.015974227
0.015993493
0.016067904
0.01614988
0.01623138
0.016307272
0.016374454
0.016431113
0.016476854
0.016511765
0.016535945
0.016549382
0.015578971
0.015573966
0.015565076
0.015551563
0.015533017
0.015509159
0.015479793
0.015444725
0.015403604
0.015355613
0.015298729
0.015228761
0.015205715
0.015164872
0.013731066
0.013755444
0.013757167
0.013742585
0.014906071
0.015176976
0.015304718
0.015461505
0.015552833
0.0158951
0.015903815
0.015901712
0.015969593
0.01604727
0.016129065
0.016208622
0.016281837
0.016346237
0.016400457
0.016444146
0.016477394
0.01650039
0.016513195
0.015506451
0.015501182
0.015492182
0.015478873
0.015460913
0.015438078
0.015410232
0.015377258
0.015338933
0.01529469
0.015243207
0.015181352
0.015163251
0.01511231
0.013713591
0.013722327
0.013709796
0.01370719
0.015205881
0.015294495
0.015487688
0.015691185
0.01579587
0.015835208
0.015822021
0.015877889
0.015949583
0.016028743
0.016109499
0.016186784
0.016257287
0.016318999
0.016370853
0.016412565
0.016444251
0.016466163
0.016478388
0.015432364
0.015426812
0.015417632
0.015404434
0.015386957
0.015365024
0.015338549
0.015307475
0.015271684
0.015230814
0.015184003
0.015128767
0.015114894
0.01506952
0.01506335
0.01366303
0.013681446
0.013680605
0.013669401
0.015510906
0.015640847
0.015737857
0.015748576
0.015795358
0.01585818
0.015932622
0.016012001
0.016091119
0.016165908
0.016233666
0.016292744
0.016342296
0.016382106
0.016412324
0.016433235
0.016444923
0.015356697
0.015350837
0.01534143
0.015328265
0.015311165
0.01529
0.015264724
0.015235326
0.015201761
0.015163819
0.015120928
0.015071348
0.015007248
0.015010171
0.0149961
0.014975045
0.01363292
0.013641797
0.013643899
0.015696534
0.015719969
0.015774144
0.015841951
0.015917964
0.015996698
0.016073785
0.016145942
0.016210948
0.016267447
0.016314762
0.01635275
0.016381588
0.016401564
0.016412753
0.0152795
0.015273239
0.015263565
0.015250373
0.01523355
0.015213011
0.015188737
0.015160742
0.01512902
0.015093434
0.01505355
0.015008171
0.014953129
0.014898081
0.014914855
0.014891703
0.014869058
0.013569631
0.013588147
0.013603709
0.013616567
0.015636096
0.015668666
0.015697665
0.015757632
0.015828557
0.015905068
0.015982534
0.016057338
0.016126794
0.016189072
0.016243056
0.016288215
0.016324466
0.016352005
0.016371105
0.016381827
0.015200711
0.015193968
0.015184002
0.015170741
0.015154114
0.015134064
0.015110589
0.015083709
0.01505342
0.015019601
0.014981866
0.01493934
0.014889453
0.014835863
0.014775445
0.014711703
0.014722305
0.01470471
0.01468335
0.013488031
0.013518042
0.013549241
0.013579393
0.015602619
0.01561976
0.015680035
0.015744787
0.015817396
0.015893525
0.015969269
0.016041622
0.016108357
0.016167958
0.016219513
0.016262609
0.016297214
0.01632353
0.016341806
0.016352091
0.015120142
0.01511292
0.015102667
0.015089324
0.015072839
0.015053167
0.015030308
0.015004274
0.014975041
0.014942478
0.0149062
0.014865478
0.014818492
0.014766115
0.014706399
0.014638944
0.014559581
0.014564784
0.014544066
0.01453302
0.013409227
0.013464753
0.013524577
0.013552768
0.015562245
0.015580768
0.015607933
0.015667382
0.015734733
0.015807878
0.015882968
0.015956679
0.016026485
0.016090522
0.016147526
0.016196753
0.016237888
0.01627094
0.016296108
0.016313611
0.016323491
0.015037584
0.015029944
0.015019441
0.015006033
0.01498967
0.014970302
0.014947916
0.014922502
0.014894011
0.014862283
0.014826926
0.014787273
0.014741909
0.014690485
0.014631658
0.014564005
0.014485593
0.014398098
0.01432357
0.014344227
0.014328079
0.014301881
0.013319383
0.013279953
0.013406924
0.013504489
0.015516315
0.015529705
0.015541082
0.015596635
0.015657929
0.015726603
0.015799459
0.01587306
0.015944548
0.016011782
0.016073182
0.016127693
0.016174708
0.016213994
0.016245589
0.01626968
0.016286461
0.016295966
0.014952815
0.014944845
0.014934159
0.014920734
0.014904508
0.014885409
0.014863397
0.014838433
0.014810432
0.014779208
0.01474436
0.014705251
0.014660725
0.014609952
0.014551792
0.01448482
0.01440806
0.014323192
0.014240768
0.014157579
0.014161547
0.014107892
0.014049293
0.013573257
0.01321023
0.013309239
0.013423185
0.01334514
0.015483856
0.015486576
0.015532374
0.015587582
0.015650502
0.015719653
0.01579167
0.015863499
0.015932679
0.015997374
0.016056235
0.016108378
0.016153311
0.016190863
0.016221096
0.016244183
0.016260293
0.016269455
0.014865592
0.014857389
0.014846604
0.014833234
0.014817192
0.014798367
0.014776679
0.014752047
0.014724352
0.014693379
0.01465872
0.014619759
0.014575513
0.014525015
0.014467205
0.014400867
0.01432538
0.014242037
0.014156178
0.014066885
0.013951621
0.013811264
0.013770505
0.013341046
0.013166376
0.013102637
0.013178551
0.013054166
0.012931269
0.015448499
0.01546235
0.015476737
0.015523712
0.015580063
0.0156442
0.01571327
0.015784102
0.015854023
0.015920899
0.015983139
0.01603959
0.016089507
0.016132493
0.016168431
0.016197395
0.016219551
0.016235041
0.016243891
0.014775643
0.0147673
0.014756512
0.014743285
0.014727498
0.014708986
0.014687613
0.014663249
0.014635734
0.014604825
0.014570108
0.014530982
0.014486579
0.014435939
0.014378064
0.01431193
0.01423706
0.014154247
0.014066315
0.013971761
0.013854232
0.013708034
0.013510836
0.013292147
0.013101609
0.012974446
0.012862463
0.012762496
0.012729955
0.012684713
0.01271552
0.015419109
0.015422959
0.015465809
0.015515108
0.015573359
0.015638327
0.015706966
0.015776436
0.015844419
0.01590906
0.01596897
0.016023161
0.016071006
0.016112187
0.016146629
0.016174419
0.016195713
0.016210636
0.016219205
0.014682675
0.014674278
0.014663576
0.014650586
0.014635141
0.014617005
0.014595974
0.014571857
0.01454445
0.014513478
0.014478515
0.014438972
0.01439406
0.01434287
0.014284471
0.014217972
0.014142922
0.014059659
0.013969081
0.013866445
0.013743267
0.013592742
0.013406566
0.013200119
0.01300607
0.012852744
0.012736789
0.012663134
0.012645105
0.012674883
0.012775085
0.012957588
0.01322224
0.015387611
0.015397741
0.015409739
0.015454138
0.01550666
0.015566847
0.015632345
0.015700355
0.01576841
0.015834511
0.015897036
0.015954773
0.016006873
0.016052807
0.016092325
0.016125388
0.016152096
0.016172597
0.016187002
0.01619532
0.0145864
0.014578017
0.014567476
0.014554807
0.014539789
0.014522105
0.014501466
0.014477611
0.014450283
0.014419169
0.014383828
0.014343677
0.014297976
0.014245873
0.014186493
0.014119003
0.014042796
0.013957133
0.013860346
0.013749394
0.013618109
0.013461173
0.01327633
0.013075455
0.012883668
0.012726851
0.012618527
0.012569611
0.012592354
0.012687696
0.012838313
0.012985459
0.013263126
0.013605543
0.015355784
0.015349603
0.015393245
0.015442187
0.015498071
0.015559998
0.01562582
0.015693125
0.015759814
0.015824152
0.015884722
0.015940466
0.015990653
0.016034842
0.016072839
0.016104638
0.016130352
0.016150126
0.016164062
0.016172153
0.01448659
0.014478258
0.014467921
0.014455631
0.014441107
0.01442394
0.01440375
0.014380193
0.014352947
0.014321654
0.01428585
0.01424495
0.014198237
0.014144894
0.014084049
0.014014756
0.013935141
0.013844373
0.013740515
0.013620385
0.013479355
0.013314192
0.01312646
0.012928413
0.012742794
0.012594698
0.012502598
0.012479454
0.012539553
0.012675762
0.012873678
0.013119211
0.013394374
0.013672633
0.014119813
0.014528945
0.015324413
0.015324504
0.015328457
0.015376243
0.015429872
0.015488901
0.015552352
0.015618399
0.015685037
0.015750479
0.01581322
0.015872024
0.015925971
0.015974432
0.016017042
0.016053657
0.016084303
0.016109107
0.016128218
0.016141727
0.016149615
0.014383145
0.014374865
0.014364728
0.014352828
0.01433882
0.014322203
0.0143025
0.014279272
0.014252124
0.014220638
0.014184318
0.014142557
0.014094626
0.014039657
0.013976376
0.013903293
0.013819045
0.013722072
0.013609992
0.013479681
0.013327883
0.013153651
0.012961881
0.012766798
0.012590982
0.012458541
0.012387914
0.012393094
0.012489075
0.012666034
0.012915757
0.013222142
0.013563373
0.013918651
0.014291744
0.014756296
0.015127536
0.015274169
0.015273274
0.015254627
0.015304663
0.015358625
0.015416742
0.015478662
0.01554351
0.015609802
0.015675889
0.015740258
0.015801604
0.015858857
0.015911214