/*--------------------------------*- C++ -*----------------------------------*\
  =========                 |
  \\      /  F ield         | OpenFOAM: The Open Source CFD Toolbox
   \\    /   O peration     | Website:  https://openfoam.org
    \\  /    A nd           | Version:  8
     \\/     M anipulation  |
\*---------------------------------------------------------------------------*/
FoamFile
{
    version     2.0;
    format      ascii;
    class       volScalarField;
    location    "3600/air";
    object      alphat;
}
// * * * * * * * * * * * * * * * * * * * * * * * * * * * * * * * * * * * * * //

dimensions      [1 -1 -1 0 0 0 0];

internalField   nonuniform List<scalar> 
167754
(
3.4332546
3.4287909
3.2860053
3.0240285
2.6917576
2.3952031
2.2862887
2.4686388
2.8730228
3.3511369
3.8304196
4.3128007
4.7671732
5.0214557
4.8565261
4.2855183
3.570623
2.9744432
2.5827264
2.4203424
2.4981713
2.8139666
3.4235057
4.4185482
5.400715
4.5342233
3.378626
2.5276352
1.7678108
1.1802052
1.068764
1.3710935
1.7673316
2.203601
2.4465379
1.9383359
1.4061034
1.0727862
0.87653832
0.76561329
0.70566471
0.68299013
0.70464527
0.79117268
0.96051269
1.2154585
1.5477401
1.9446127
2.4099084
2.9168731
3.4305877
3.8977938
4.2822562
4.5642728
4.7493959
4.8379874
4.8867243
4.9323965
4.9722825
4.6349272
4.6016565
4.403281
4.0835245
3.7150976
3.4211148
3.3289494
3.477259
3.8022094
4.2325674
4.7256349
5.2345311
5.6982986
5.9965226
5.8135113
5.2761072
4.7725045
4.3003137
3.9584225
3.7845118
3.8807627
4.2924937
5.0328178
6.0700077
7.1028936
6.5591903
4.7099801
3.4106843
2.5301657
1.9300037
1.9047324
2.3831274
3.2716558
4.4609648
4.3786451
3.4524904
2.7213018
2.2539837
2.0011743
1.8919162
1.8652313
1.8928534
1.9856423
2.1714679
2.439677
2.7422995
3.0561047
3.3795269
3.7074961
4.046397
4.4481521
4.8355522
5.1582185
5.4231229
5.6542807
5.8522201
6.0367145
6.2141639
6.3245226
5.2557917
5.169112
4.8923518
4.4976818
4.0924107
3.8091926
3.7275802
3.8343739
4.0801482
4.4270171
4.8062302
5.1746946
5.4544133
5.6554371
5.6847506
5.3133248
5.0305796
4.8728281
4.6945899
4.4752819
4.3594998
4.4498074
4.7795617
5.1795152
6.0182818
6.8994682
5.0821921
3.6988061
2.9398539
2.4852402
2.4856794
3.030232
4.397084
5.3506493
4.4196183
3.8214883
3.3199869
2.9318507
2.7084678
2.6207862
2.6162839
2.6697014
2.802758
3.0561138
3.3960098
3.7101089
3.949247
4.1359118
4.2837552
4.4052429
4.6193764
4.8887931
5.1807229
5.4763163
5.8081533
6.1675618
6.5049834
6.8107529
6.9879224
5.4958651
5.3476108
4.9871801
4.523208
4.1006624
3.852448
3.8011222
3.8872473
4.0750259
4.3417816
4.6508261
4.9147934
4.9528254
4.8848291
5.1584283
5.3184676
5.3829775
5.5522069
5.4864835
5.0879184
2.1897228
2.187248
4.6496907
4.4455743
4.6937019
5.9719547
5.4520033
4.082133
3.566322
3.0835429
2.9603408
3.7211267
4.6983809
4.0678608
3.8751316
3.6285534
3.3901871
3.1989826
3.1115078
3.0557909
3.0431362
3.0765388
3.1934961
3.446051
3.8115276
4.1514529
4.3586727
4.4539377
4.4776689
4.4493839
4.491268
4.6117496
4.830501
5.1478619
5.5492492
6.0446875
6.5308882
6.9594541
7.1992213
5.5055494
5.3097891
4.8726715
4.3594452
3.9426324
3.746858
3.7427471
3.8401002
4.0049445
4.3101119
4.7616834
5.169057
5.282785
5.0182159
4.7566882
5.2327588
5.7228368
6.250051
2.6785489
2.568855
2.379487
2.2612903
2.4207366
3.7730841
1.9520708
4.4632757
6.1965586
5.2685802
4.8248333
3.9331128
3.6076607
4.233888
3.4594249
3.8559137
4.0850884
4.0411903
3.7120296
3.4615122
3.3629204
3.3306808
3.3093505
3.3115025
3.3839215
3.5828368
3.9137631
4.2614963
4.4812789
4.5494214
4.5150176
4.408937
4.3249077
4.2988448
4.3948831
4.6792875
5.1467307
5.734012
6.325426
6.8165391
7.0905758
5.3978685
5.1678196
4.713693
4.1653207
3.7537304
3.6040844
3.6557788
3.7795612
4.0479365
4.5497123
5.1961376
5.7204802
5.868868
5.611066
5.0652152
4.8265666
5.434239
2.9913183
2.7821478
2.516857
1.1168357
0.49173284
2.125676
1.7380007
1.6134524
2.4182618
2.7161673
2.3950386
6.7585352
5.0387093
4.3927134
3.0334921
3.5336763
4.0518012
4.3737646
4.4890392
4.3896051
3.9768303
3.6536242
3.5505213
3.5070396
3.4827889
3.5032358
3.6220915
3.8687898
4.1808551
4.420042
4.5133362
4.4826388
4.362191
4.2091994
4.0772265
4.0467362
4.2439964
4.7267319
5.3796381
5.9973861
6.526159
6.8327715
5.2685855
5.052731
4.5945764
4.0458212
3.6115631
3.4807474
3.5791757
3.8031764
4.3220293
5.1731286
5.7572654
6.1989032
6.3681167
6.1811385
5.6750083
5.1257149
3.0416454
2.5312318
1.2040475
0.52957256
0.98928191
2.1738043
1.4009156
0.66189079
0.8789525
2.3320931
3.0521781
3.3706783
2.4951794
2.0516619
3.3241424
3.8135227
4.2666634
4.5914395
4.7695443
4.7811463
4.6224932
4.1383231
3.8141031
3.6997089
3.6459432
3.6187051
3.6540059
3.7937024
4.0255924
4.2560714
4.3915327
4.4057924
4.3162474
4.1465698
3.959742
3.8417042
3.9375621
4.384078
5.0728697
5.7505827
6.2905111
6.572002
5.2474098
5.0630143
4.6032186
4.019563
3.5520455
3.3933184
3.5456683
4.036545
4.9816361
2.557501
6.3547568
6.6020372
6.7362722
6.6197545
6.2093791
2.3862469
3.1127799
0.79675502
2.2755269
2.2865068
1.1775446
1.0525334
1.3718797
2.5262454
2.1209173
2.0882658
2.0886196
4.3272868
4.753963
5.0214226
5.0753501
4.9936564
4.7801655
4.2062339
3.8633129
3.7655031
3.728831
3.7003318
3.7350031
3.8753683
4.0685129
4.2304221
4.3015688
4.2639465
4.114271
3.9096382
3.7464156
3.7656849
4.1416514
4.8317794
5.5383577
6.0629054
6.3326833
5.3409977
5.200665
4.7277972
4.0706701
3.5272162
3.3449352
3.6328807
4.5140049
2.3059576
2.7119365
3.0846099
2.9675066
6.9150917
6.887809
6.536424
2.5966889
1.2067868
2.5185348
2.1295148
0.49236428
0.82858644
1.1579739
1.9404508
1.9274265
2.2794776
2.4949157
5.1809755
5.2317483
5.2415043
4.6151551
3.9494188
3.7388289
3.7222041
3.7069003
3.6863274
3.7513758
3.9087575
4.085498
4.2032715
4.2148304
4.0978187
3.8932257
3.7076822
3.6774736
3.975228
4.6236426
5.2963388
5.7847599
6.0344432
5.3975063
5.2448421
4.7539035
4.1071797
3.5299044
3.3391572
3.8282366
5.0729232
2.4681724
1.1381891
0.96337402
2.6347926
2.856861
3.1288365
3.1249097
2.6324136
0.86690292
1.0656646
2.5410461
1.3637832
0.85017827
1.3993516
2.3007261
2.5229102
2.716079
2.8718875
4.7529175
4.6020503
4.3471259
4.1124553
3.9361538
3.7711032
3.709205
3.7948192
3.9742479
4.1361231
4.190146
4.1051379
3.9180499
3.7401012
3.7030463
3.9025866
4.3021609
4.8007584
5.2310862
5.2813134
4.7872457
4.5829297
4.3411571
4.1096135
3.6653067
3.5101566
4.08326
2.1338494
2.2874964
0.56455513
1.0086001
2.6170263
2.755106
2.3077973
2.2070045
2.4074474
0.70579318
1.2326343
1.598222
2.5426588
2.4988657
2.7480565
5.0611366
4.9980819
2.3345665
4.120372
3.8196651
3.771563
3.9074689
4.1040939
4.2114335
4.1794767
4.061879
3.965727
4.0028601
4.0291323
4.0869717
4.3779076
4.6714377
4.5552668
4.1732661
4.3164151
4.4692015
4.5584824
4.3057022
3.8365631
1.9195328
1.9255314
0.84084877
0.50348654
1.0748758
1.2830237
2.3042287
1.3551535
1.2157455
1.39412
2.6476985
2.5207488
2.5573835
2.2842433
2.1151638
2.1110555
3.9684932
4.2417233
4.4323256
4.491149
4.5159542
4.5545105
4.6073592
4.2799458
4.3266089
4.6066519
4.8428899
4.8347465
4.3074669
4.5308594
4.7488045
4.8518426
4.5088592
3.4746297
1.8524165
1.5276308
1.0514376
0.98495687
2.2070872
0.88213976
1.0580964
2.0809331
0.61661851
0.85401453
0.91074832
1.8001603
2.2456586
2.3935298
2.4552999
5.2434387
5.3494464
5.3568583
5.0244057
4.4289518
4.6576484
5.0095017
5.2923077
5.3722173
4.6622794
4.8422864
5.0126147
5.0787216
4.7039161
2.2742808
1.5791683
0.59778147
0.89564748
2.0307172
1.1651367
2.4602569
1.0628903
0.26201182
0.83856198
2.4046213
2.5362227
2.6349286
2.6071959
2.6702495
4.8720415
4.4553203
4.975438
5.4465867
5.7979822
5.8989881
5.0580425
5.1661337
5.2455489
5.2638575
4.8324225
2.5644341
1.0145426
1.7452916
1.6270969
0.96281608
0.31337913
1.9872353
0.82535075
0.6427287
1.0492236
2.0807401
2.2589184
2.9061579
2.013546
5.241827
5.8807142
6.2568869
6.3384313
5.4317811
5.4833119
5.4725674
5.4141835
2.7987121
2.7504526
0.88567304
0.76636944
1.4164835
0.66032881
0.82299159
1.9662881
0.30368982
0.62363225
1.0216924
1.8459418
2.60889
6.2400752
6.5906998
6.6630497
5.7628843
5.7793756
5.7169111
5.602953
2.9349052
1.4552067
1.4948769
1.7012128
0.44514679
2.3806641
1.237711
0.72001883
2.6937494
6.3756298
6.7701233
6.8856229
6.0559579
6.0392823
5.9317989
2.9904553
2.9414561
1.1549806
0.82402316
1.7551286
1.5911346
0.45507728
2.6071694
1.1464243
0.99491528
2.6328387
6.3646869
6.8307432
7.0023058
6.3368945
6.2722686
6.1024534
2.9771885
2.7034451
0.29654185
1.8196625
2.1370308
0.92721564
1.1079826
2.726002
0.53582389
1.1016149
2.5822396
6.3687412
6.9119402
7.1949615
6.6636403
6.5222902
6.2779553
2.9469044
2.7535778
1.0340024
2.0580452
2.4844154
2.3351973
0.53603318
2.3797264
1.4731624
1.8334984
5.6452769
6.5046981
7.1055209
7.4756864
7.0680947
6.8703265
6.5895593
6.4191583
2.8998057
1.2979081
0.90879226
2.661586
2.7629338
1.3877987
0.31012061
2.6775325
1.2538521
1.7930173
5.7711556
6.6750466
7.3619931
7.8415093
7.4513837
7.218148
6.9450824
6.8103003
3.0629479
2.5193002
2.7375188
2.8496101
2.8051728
1.0024469
0.96627026
2.9132721
1.1924208
1.7995129
5.9447962
6.9125266
7.70744
8.3165616
7.737305
7.4853289
7.2571956
7.1978907
3.207278
2.9553539
0.27444861
1.1922874
2.9439111
2.79965
2.7567563
2.5606286
1.9258272
1.6293364
1.8280497
1.7366756
1.6236059
1.3609308
1.180083
1.3801613
1.586757
1.6093122
1.4549513
1.3427205
1.3765363
1.4137222
1.4094539
1.4410499
1.413955
1.2673949
1.4829062
2.3564699
2.8209147
3.1374533
1.1328754
1.8469188
6.201896
7.2232864
8.1347658
8.86676
7.8484831
7.6043681
7.4404816
7.480619
7.675892
3.4121725
0.90515292
3.0280415
2.8294458
2.6681972
1.5034477
2.5485148
0.9828487
1.0673159
1.1958176
1.0484976
0.89865629
0.76133524
0.61949737
0.62652513
0.86042394
0.90507556
0.92954108
0.88411938
0.88436775
1.1947616
1.2117928
1.0397657
0.67436996
0.94819655
1.1082112
1.3907354
2.9293247
2.9331567
1.0329955
0.372153
1.9798496
6.5327109
7.5867359
8.5642587
9.2792929
7.6607209
7.4857594
7.3873969
7.4859635
7.6462849
3.7365907
1.4456806
1.1404903
2.8355185
2.6997124
2.7420931
1.5831195
1.3858375
1.860867
1.8273462
0.94119016
0.54606765
1.0670563
0.57248446
1.0980859
0.99221659
1.1467052
2.6797418
2.8404505
2.8105907
2.5921298
0.94900412
0.5390201
2.1541424
6.8754023
7.8882172
8.7151312
9.1376267
7.0201744
6.9337704
6.8458647
6.9225246
7.0266341
3.4027537
2.977717
0.38453422
2.9108704
2.6578672
2.6338758
2.7432113
1.2269093
0.67681583
1.0043655
0.67950298
0.71129799
0.53110175
0.87328675
0.98645732
1.1007254
1.0749243
1.1220847
1.1268131
1.0134916
0.88821217
0.83348223
2.1079068
1.4679995
0.76560795
1.0179716
2.5505493
2.6714157
2.6686241
5.5407149
2.2298466
0.89772797
0.71426454
2.3499505
7.0970122
7.8831026
8.3685655
8.5585747
6.2442489
6.2265557
6.1320912
6.1635881
6.2956829
2.9849459
2.7536679
0.66053203
2.3458892
2.7910237
1.5243168
1.5449905
1.5421637
1.2413878
2.1930328
0.81538977
1.6599632
1.9376846
2.1249862
2.2620811
2.2791313
2.1260948
1.7814269
1.420528
1.2988515
1.2344014
1.5649653
0.80145308
1.1141244
2.3763626
4.8561452
4.8228528
2.2352952
1.8945292
0.73769623
0.80437572
2.4205565
7.0826385
7.5453953
7.8314391
7.9552155
5.5685327
5.5668608
5.4763744
5.4933559
5.6505292
5.8630938
2.6564003
1.2801198
0.81641832
2.1826292
2.4521302
1.5420118
1.4832579
1.2466772
0.97067121
0.79334149
0.75922462
0.5252004
0.64509097
1.4830041
1.7077463
1.9095261
2.02326
2.0476632
1.9588556
1.7288373
1.669707
2.3073105
2.1267122
1.658839
0.90636754
2.2173428
2.1310512
1.9772281
1.9039752
2.2996074
0.68218135
2.0318731
6.1759619
6.8314765
7.0822099
7.2702308
7.3659696
5.1280174
5.1384962
5.057708
5.0499817
5.1434289
5.2659226
5.0859342
2.3280409
1.5971553
0.61463289
1.7331912
1.9311123
1.34827
1.6174671
1.4056683
1.0232441
1.2434378
2.9089327
3.1640857
3.3937923
3.5784059
3.7235202
3.8336324
4.0058618
4.1554227
4.6167926
2.2778853
1.7253941
0.88315783
2.2532941
2.1485588
2.0360546
1.9815888
1.9955056
0.61943433
2.229044
6.0998446
6.4122043
6.5440437
6.7039866
6.7973238
4.871031
4.8925961
4.8172791
4.7785747
4.8043881
4.8280732
4.6716937
4.0229164
1.7946385
1.1838484
3.0109689
3.517693
2.183304
2.2630359
1.151399
0.43287415
1.2617441
2.8185209
3.0084039
3.2113655
3.405911
3.5731776
3.7064463
3.7784616
3.8121206
3.7938099
4.2215873
2.0316576
1.6757833
0.73858569
2.238663
1.421635
2.1262726
1.8340513
1.7306227
1.816648
0.75813813
0.33464675
2.0979149
5.5086019
5.8363251
5.989425
6.1535896
6.2550116
4.7352538
4.7606869
4.6818828
4.612877
4.5865011
4.5490807
4.3749313
3.8791474
3.1282987
2.6034075
1.6564233
1.9324599
2.0558338
2.0658942
1.0718464
1.1355159
2.6985096
2.875191
3.0657063
3.2788243
3.4737992
3.6230295
3.7217796
3.7428309
3.6911686
3.595776
3.7987309
1.6996021
1.502015
0.62449328
0.91245113
1.2280119
1.2800763
1.2165716
0.89709098
0.88959453
2.1071216
2.2779484
2.3605475
0.73098088
0.24915343
0.56133099
1.873174
4.8528646
5.3060575
5.4787368
5.6404698
5.7475442
4.6853163
4.6999868
4.6045215
4.5069415
4.445378
4.3729917
4.1868387
3.7609351
3.1122295
1.4450744
1.628385
1.2019813
2.0089049
1.9440561
0.97142346
1.2181598
2.7596556
2.9158518
3.1079138
3.3280678
3.5149459
3.6424692
3.7143225
3.7056623
3.6267473
3.5360633
3.6963538
1.6569489
1.5452849
0.50616502
0.86995464
1.9996897
1.9220448
0.87888023
0.20297193
0.72941041
0.78482341
2.0732949
1.6779111
1.3766561
0.59725666
0.19634165
0.69805532
1.8083466
4.2464182
4.8229434
5.012644
5.1728053
5.2840418
4.7029972
4.6872469
4.5604157
4.4395907
4.3508883
4.2621144
4.0766323
3.6964671
3.0888072
1.4755847
1.7471161
1.4965492
1.4685168
1.9680165
0.93473376
1.3052529
2.8632114
2.9671558
3.1399506
3.3491925
3.516245
3.6167211
3.663794
3.6359469
3.5491356
3.4787988
3.6932013
1.7223992
1.7623989
0.66943862
0.56168906
0.81511029
0.87185017
1.5860089
0.57608362
0.20542949
0.61498065
0.91270158
1.4682726
1.3859555
1.2353122
0.61013665
0.22993104
0.97286505
1.8506392
3.5957557
4.2910838
4.5794588
4.7604003
4.879514
4.773622
4.7103047
4.5414244
4.3888885
4.2786633
4.1816368
4.0118539
3.670809
3.0297574
1.5621012
1.8566016
1.4292834
2.0111147
1.3504581
0.97215261
1.3531441
2.9306783
2.986191
3.1343919
3.3301483
3.4777819
3.5464309
3.5587919
3.5040156
3.3956108
3.2976512
3.4739599
1.7233982
1.8313288
0.74024071
0.62584347
0.84274335
1.3866039
0.55720043
0.2170699
0.65176498
0.72520352
1.0262866
0.89394834
1.744644
3.1497066
3.3391529
3.899733
4.229111
4.4292264
4.5543945
4.8762577
4.7575999
4.537215
4.343161
4.2112435
4.1091228
3.9472956
3.6011044
2.9323299
2.4771345
1.7083909
0.96509519
1.1512091
2.0510789
0.96456096
1.2882223
1.4671306
1.5105966
1.5669259
1.6620419
1.7550734
1.8101365
1.8238768
1.7721327
1.6410777
1.4698303
1.3780539
1.4919238
1.7523541
0.73565993
0.6316061
0.84086849
1.1631078
0.18441431
0.51963569
1.7786713
3.1981438
3.2817658
3.6850387
3.9921889
4.19485
4.3221657
4.9866605
4.8107891
4.5358224
4.2929729
4.1370607
4.0298943
3.8612044
3.4767989
2.8183252
2.4421361
1.4947091
1.7045793
1.0533077
1.7314569
1.6087877
1.4244664
1.5441992
1.5080558
1.3630284
1.3264177
0.79489729
1.0693231
1.1165692
1.1767654
1.2331217
1.2604736
1.2748918
1.249645
1.1218628
0.9652966
0.86206246
0.83137774
1.6182247
0.81046982
0.86239793
1.64872
0.49079095
0.8336779
1.9981565
3.3561409
3.3447872
3.6072196
3.8631992
4.056538
4.1855794
5.0815851
4.8534344
4.5257229
4.2319625
4.0467148
3.9288346
3.7356427
3.2996794
2.6777469
2.3754362
1.3850611
1.7054808
1.0795834
0.91279944
0.94840285
1.6746277
1.7014581
1.6689686
1.4423634
1.2728474
0.67257404
0.9215953
0.96689881
1.0447745
1.1315781
1.1888718
1.1851748
1.132035
0.99016161
0.83454458
0.70594377
0.67027852
1.6223347
0.91337066
0.85816942
0.6528354
1.8598891
3.4557804
3.4985663
3.4450662
3.6086284
3.8180631
4.0051103
4.1401983
5.1410731
4.8761363
4.4968349
4.1520346
3.9300696
3.7938772
3.5554571
3.0801808
2.5185025
2.3293451
1.3972988
1.7040458
1.0940308
1.0253185
0.87303447
1.678483
1.6454923
1.7735118
1.6676055
1.3218167
0.69732452
0.4690257
0.35566562
0.31391228
0.44241707
0.64461124
0.64813507
0.38954433
0.26765139
0.24337925
0.28139259
0.61375021
2.2475848
1.9249542
1.395721
0.39849234
0.76785469
1.908014
3.5871968
3.5979062
3.5384413
3.6498393
3.8353844
4.0285762
4.1818803
5.1481332
4.8628086
4.43862
4.0417599
3.7797425
3.6103904
3.321395
2.8291601
2.3787394
2.3479427
2.6373536
1.549812
1.6036564
1.5685116
0.85831259
0.81245778
1.5708669
2.0888318
1.2785259
1.0285197
0.78601931
0.51828067
0.33239017
0.29526449
0.67807198
0.62385041
0.63210527
0.32818631
0.31783619
0.35500555
0.40716163
1.8766217
1.1327775
1.6616045
0.43972688
0.32878379
1.6224669
3.3780243
3.6339409
3.6489444
3.6136855
3.7125301
3.9008328
4.1218632
4.3135951
5.1041905
4.8042414
4.3409235
3.8924907
3.587319
3.3766898
3.0374084
2.5805224
2.2987733
2.3802984
2.57465
1.404758
1.2798671
1.2148014
1.0922944
1.1413542
1.378488
1.8419461
2.3256881
2.3006145
1.9987739
1.5109001
1.1286519
0.83764534
0.78714772
0.86971838
0.95916216
1.1045765
1.2369501
1.2529118
1.2904941
1.4235536
1.4174505
1.0058605
0.20380516
1.3189762
3.0869194
3.4376089
3.6397024
3.6746645
3.6795759
3.7967119
4.0126726
4.2873785
4.5414521
5.0172896
4.6950913
4.1984268
3.6924852
3.3471824
3.0895286
2.7368039
2.3886467
2.2924767
2.4248227
2.578847
1.4093115
0.83169809
0.40146413
0.33224476
0.23237036
0.2407955
0.31924146
0.3709129
0.30886138
0.29109237
0.27965975
0.24896401
0.19231781
0.22224511
0.2086792
0.20375776
0.21899603
0.26694836
0.34294764
0.49782654
1.2512352
1.1110495
0.87445511
0.27705796
0.47262914
1.515431
3.1706823
3.4450771
3.6286408
3.6903033
3.7442874
3.9068917
4.1752778
4.5235077
4.8607772
4.8781476
4.5351437
4.002114
3.4443548
3.0627641
2.7725466
2.4661537
2.2828114
2.3180681
2.4788529
2.7274555
1.5038153
0.71575526
0.44992793
1.2395035
1.1078019
0.94975289
1.0453247
1.0902635
0.2186369
1.2891877
2.9565986
3.2118303
3.443148
3.6141559
3.7083347
3.8242113
4.049303
4.3857335
4.8126276
5.2448846
4.6793826
4.3200351
3.7456365
3.1539081
2.7590358
2.4795459
2.2910758
2.2699062
2.3758861
2.578378
2.9334055
1.6077373
1.7416133
0.21487306
1.3714054
1.263821
0.39057058
0.38105351
1.0874665
1.3217966
0.5737573
0.52606229
1.471858
3.0458825
3.2398933
3.4429045
3.6089252
3.7455469
3.9284373
4.219814
4.6216992
5.1190781
5.6462246
4.4138381
4.0408447
3.4328923
2.8549506
2.5172447
2.3244793
2.2872608
2.3779774
2.5382017
2.8206835
3.3067639
1.8557525
2.0702539
0.57902465
1.7451179
1.622602
0.52883308
0.1938703
0.494931
1.1089532
1.1929459
0.53671316
1.2338931
2.850921
3.1052059
3.2658662
3.446356
3.6216811
3.8060876
4.0513578
4.3979742
4.8474943
5.3974184
6.0088214
4.0749717
3.6823386
3.0889001
2.6729678
2.4792814
2.3940547
2.4593856
2.6062364
2.8225566
3.1606283
3.6685816
4.3556802
2.2925725
0.86923919
0.59318201
1.9024263
1.4485101
0.37357707
0.43462702
0.96725935
1.0636494
0.99051632
0.43518512
0.54559394
1.3717975
2.9418407
3.1418833
3.2860985
3.453107
3.6496954
3.8806097
4.1735806
4.5525478
5.0233565
5.6006586
6.2821791
3.6542396
3.2330063
2.8343641
2.7554804
2.632225
2.6073308
2.7132489
2.8900645
3.1444111
3.4929581
3.9449479
4.5320023
2.4506882
1.0700885
0.29332176
1.6806968
1.6140214
0.66079724
0.50753793
0.99893727
0.98481568
0.4894431
0.20080044
0.31647657
1.2046549
2.6421865
2.9744069
3.150849
3.2873896
3.4567858
3.6818185
3.9497532
4.2674243
4.6507037
5.1159347
5.6963675
6.429658
3.171345
2.9152903
2.8648614
2.9482228
2.8100322
2.8245297
2.9558245
3.1585832
3.4247609
3.751216
4.1428287
4.6685916
2.5499901
2.1998907
1.3478221
1.4504781
1.1037546
0.23231681
0.21382149
0.53122529
0.92558294
0.81731965
0.49779669
1.2917705
2.4571715
2.649123
2.9513271
3.1273671
3.2625472
3.4479791
3.7009512
3.9887033
4.3044529
4.6660944
5.1053436
5.6708549
6.4263392
2.8998829
2.7229353
2.8678372
3.0427293
2.9295138
2.9922407
3.1551826
3.3704123
3.6237486
3.9100845
4.2608965
4.7782088
2.5860841
2.6700619
0.90336785
0.50261239
1.1511855
1.0446377
0.42757049
0.33886638
0.9105077
1.2781098
2.9581759
2.54297
2.607899
2.8812112
3.0719268
3.2099678
3.4169065
3.6888445
3.9742879
4.2625892
4.5832099
4.9855961
5.5268597
6.2607122
2.601307
2.5164607
2.969508
3.0335938
2.9932432
3.1059086
3.2920932
3.5072028
3.7385675
3.9954831
4.3386805
4.8819927
5.6342323
2.8630706
2.3621974
0.54448063
1.2746044
1.0197357
0.83253994
1.3790994
3.0702976
2.6342599
2.5864363
2.8009049
2.9927049
3.1319599
3.3563629
3.6311198
3.890659
4.1317556
4.40149
4.7662784
5.2873498
5.9612342
2.3311994
2.4865387
3.0366244
2.983931
3.0137983
3.1608219
3.3556847
3.5664416
3.792023
4.0645108
4.472444
5.1108269
5.9513048
6.5485229
3.1302153
2.5933349
1.0529821
1.3792812
1.3892838
1.1274834
0.36787791
0.52894474
1.5008725
3.1945534
2.7784804
2.6170148
2.738607
2.904985
3.0345108
3.2626765
3.5210515
3.7354781
3.9181824
4.1395615
4.4851019
5.0053895
5.6110981
2.2430384
2.581326
2.9652614
2.9089454
2.9857018
3.1490066
3.3480453
3.5676509
3.824981
4.1680392
4.6760534
5.4000201
6.2037625
6.7753631
6.9001395
6.0850014
2.2718648
1.4731781
0.33318135
0.70937174
1.6443149
1.6389724
0.62290033
1.3096219
3.3233836
3.3071583
2.9523748
2.7168213
2.7195587
2.8246681
2.9299613
3.1415055
3.3660897
3.5250877
3.6500121
3.8525523
4.2394425
4.7927398
5.3350227
2.3506389
2.707623
2.8399896
2.8070653
2.9064352
3.0829091
3.297007
3.5504191
3.8711785
4.3003616
4.889834
5.5909718
6.274427
6.8312943
6.6903566
5.7955756
4.4138188
1.7879345
1.6429864
0.63481755
2.0788017
2.3248405
2.1282136
0.53631163
0.73984326
1.6566963
3.5096012
3.3721961
3.1281082
2.8848348
2.7698621
2.7860501
2.8462632
3.0173966
3.1907414
3.289575
3.3826152
3.6602475
4.1732704
4.7981846
5.3581166
2.6163786
2.8096591
2.7172958
2.6853176
2.7931751
2.9888984
3.2425853
3.5510442
3.9335431
4.4223988
5.0027706
5.5925647
6.067073
6.1563882
5.6669892
4.8997776
3.9084146
3.0810028
2.908651
1.6074728
1.3641209
0.24517403
2.4042071
6.2454237
2.9464848
1.4142307
0.40947473
1.7586034
4.0705757
3.4566283
3.3163243
3.2455129
3.0765752
2.9021158
2.8234833
2.8150054
2.9222528
3.0485201
3.0611587
3.2022445
3.6643925
4.3131549
5.0295187
5.5758243
2.9345924
2.8521898
2.6299576
2.5649227
2.6742599
2.9077661
3.2112108
3.5603147
3.9690851
4.4536426
4.9492854
5.3387424
5.4382499
5.1677115
4.6439515
3.970812
3.2754966
2.8823383
3.0066757
3.3734255
2.144185
2.0606263
1.0942475
2.7706975
7.1294598
3.4722855
2.9508707
0.64301003
1.6767475
4.7839752
4.2731063
3.5268337
3.2885998
3.252064
3.1981914
3.0689085
2.9401378
2.8666611
2.898078
2.9741372
2.8813564
3.1750229
3.7913342
4.4729167
5.2174134
5.7076385
3.11832
2.9076329
2.6035194
2.472611
2.5822679
2.8568329
3.1833666
3.5353433
3.9346791
4.3558715
4.7177534
4.8570116
4.6883483
4.3236577
3.8619534
3.4149839
3.0981803
3.0643953
3.4568331
4.3860546
5.2776779
5.7762717
2.8114729
6.7843161
7.2810085
7.6465462
3.7095555
3.4600856
1.3084998
0.70205447
2.1893275
5.241323
4.7297628
4.0973272
3.5414083
3.3037822
3.243877
3.191535
3.0887787
2.9943976
2.9757159
3.016398
2.8364604
3.2503194
3.8820251
4.5398335
5.2905181
5.7540052
3.3636285
3.0434523
2.6364995
2.41759
2.5194111
2.807587
3.1179094
3.4439199
3.8015024
4.1380906
4.347005
4.2850385
4.0192681
3.6881554
3.3747567
3.2146157
3.1657615
3.3312191
3.8439027
4.6772797
5.4036663
5.9056715
6.2605566
6.4908456
6.692233
6.7993034
6.6786078
6.028105
2.8259692
2.28697
0.72034017
1.9145016
5.3609879
5.3259036
5.023333
4.634154
4.0952215
3.6007052
3.3636214
3.2810561
3.2190089
3.1485303
3.121954
3.163644
2.9362387
3.307182
3.8960155
4.5497781
5.2751489
5.7327815
3.6140065
3.2029779
2.6928882
2.3848427
2.4542578
2.7212555
2.9954342
3.2876952
3.5852104
3.83237
3.9062147
3.7379445
3.479147
3.2392933
3.1561003
3.1789164
3.2861481
3.5846572
4.1404671
4.8414703
5.3869038
5.7101778
5.8577075
5.8581998
5.7615201
5.5588148
5.2507441
4.7828341
4.1154401
1.9103837
1.4297765
0.95102442
0.25277501
0.57806711
2.1040215
4.8447009
4.972618
4.9410526
4.8040288
4.5138101
4.0789022
3.6666459
3.4340821
3.3367726
3.287633
3.2699771
3.3057335
3.0830866
3.3224183
3.8355516
4.4746807
5.1846256
5.6516317
3.7679286
3.3037708
2.7204262
2.3482547
2.3693071
2.5897217
2.8205668
3.0721392
3.315844
3.48535
3.4629988
3.2713116
3.0441974
2.976497
3.0745293
3.1839131
3.3975323
3.7807853
4.3220516
4.8798515
5.2393615
5.3615373
5.2906239
5.0710408
4.7491247
4.3674718
3.9898653
3.6661214
3.8363505
4.5800232
4.3002014
1.6969363
1.5974401
0.72540112
1.4805937
3.7131945
4.3547388
4.5787511
4.6756613
4.6946411
4.6251989
4.4005262
4.0328103
3.684728
3.4873399
3.4107531
3.389468
3.3886022
3.1610671
3.293927
3.7114203
4.3223318
5.0261414
5.5123136
3.8151431
3.3315725
2.7127994
2.3095762
2.2839914
2.4464777
2.6315652
2.8376392
3.0436089
3.1631033
3.1015004
2.8926689
2.7457413
2.8617655
3.0290399
3.1919548
3.477007
3.9065668
4.405713
4.8245466
5.0157824
4.9587254
4.7137612
4.3484353
3.9499263
3.6057589
3.4568794
3.7900902
4.5772038
5.0975811
5.2210193
5.1093524
5.0724533
2.251558
2.0310561
0.68135242
0.66084581
1.600239
3.5880665
4.0229772
4.247534
4.3939517
4.4922808
4.5458882
4.49985
4.2825411
3.949554
3.6747788
3.5394263
3.4889683
3.4463326
3.1764764
3.2403825
3.5558659
4.1190158
4.8111706
5.324534
3.8700515
3.391522
2.7584424
2.3391594
2.2695639
2.3764922
2.5213596
2.6906748
2.8573117
2.9624367
2.9125945
2.6931273
2.660045
2.8385467
3.0128838
3.2059887
3.5226978
3.9664358
4.4204002
4.724381
4.7702641
4.567389
4.210215
3.8072937
3.4730918
3.3503702
3.6430192
4.329152
4.9671984
5.3847416
5.541363
5.3128262
4.9868324
4.8636943
4.7100034
2.1348708
1.8177237
0.66859753
1.9671316
3.3068037
3.4391235
3.8055576
4.007695
4.1586848
4.2894163
4.40393
4.4667257
4.3916513
4.148012
3.8623171
3.6832245
3.5965556
3.5236507
3.3051148
3.238542
3.4218621
3.9283116
4.5854453
5.1341192
4.1369709
3.6608881
3.0244824
2.5710395
2.4415663
2.5010925
2.6210247
2.7734469
2.9295807
3.0522542
3.0545239
2.8355219
2.8153466
2.9469516
3.0803952
3.2502859
3.5396269
3.9635817
4.3748199
4.5945814
4.5175451
4.2028429
3.7972325
3.4408922
3.2800748
3.4744163
4.0367472
4.7340043
5.3450497
5.7890344
5.9308559
5.5400843
5.0053157
4.6487177
4.3947143
4.2284793
1.9154505
1.7906292
3.7231756
3.2698316
3.2458437
3.594776
3.8186181
3.9813616
4.1227122
4.2610356
4.382344
4.4097776
4.2678312
4.0197518
3.8256397
3.712509
3.6195974
3.4821953
3.3241459
3.3442613
3.8057803
4.4222881
5.0344803
4.6620194
4.2430132
3.617256
3.1137139
2.9000714
2.9045342
3.0070578
3.1579272
3.3312194
3.4868329
3.5997599
3.368075
3.1731394
3.1956526
3.2670121
3.3436328
3.5312274
3.8916094
4.2608293
4.4186152
4.2526431
3.8681293
3.4669615
3.2280266
3.3028997
3.7349452
4.4427945
5.187653
5.8192367
6.2786124
6.3977932
5.8953149
5.2868885
4.8338159
4.4879797
4.1803564
3.9008607
3.672863
3.4975774
3.2171206
3.0813734
3.3558136
3.6125376
3.8092814
3.9819978
4.1362511
4.2859166
4.3781616
4.3239281
4.1336271
3.9455821
3.8284955
3.7231314
3.6103372
3.5417066
3.3452862
3.6464821
4.3062169
4.9035275
5.33177
5.0628629
4.494815
3.9527082
3.6556398
3.5873918
3.6547847
3.7929996
3.9646976
4.1329475
4.3343662
4.0413682
3.7126055
3.4664718
3.3890697
3.3888605
3.4673382
3.7381399
4.0702533
4.2003618
3.9825515
3.5607076
3.2061931
3.1262573
3.4420062
4.0419791
4.8615432
5.6581339
6.3167038
6.7903379
6.8583727
6.3178973
5.7135577
5.2089001
4.8210008
4.4940557
4.2255212
3.9923998
3.7505054
3.4607377
3.1644485
3.1716785
3.3791977
3.6037498
3.8205468
4.0180129
4.1866544
4.3160219
4.3284982
4.1985805
4.0348071
3.9230393
3.8109415
3.6923043
3.663149
3.9463729
3.4393674
4.0051377
4.3238531
6.0394273
5.9214607
5.5104017
5.0184017
4.666857
4.5262068
4.5375124
4.6360183
4.7717345
4.8553327
4.8071299
4.6150182
4.3416854
3.9864317
3.6161427
3.3680708
3.3053236
3.5013836
3.8066165
3.9455357
3.7110997
3.2700482
2.999353
3.1805991
3.6486148
4.3716226
5.2682282
6.114798
6.8030084
7.2885686
7.2684184
6.7460072
6.1605073
5.6198694
5.219973
4.9238677
4.7228241
4.5935931
4.4624526
4.1729919
3.6957592
3.3079809
3.2480523
3.4089463
3.6435641
3.8832274
4.0825657
4.2333758
4.2896403
4.2151919
4.0829761
3.9789197
3.8663414
3.7405604
3.6962861
3.9538182
3.9569338
3.9043429
4.1179153
6.7562579
6.7379355
6.4648387
6.0645639
5.7205209
5.5269911
5.4742064
5.5169824
5.6010817
5.6259884
5.4473935
5.1687071
4.8442321
4.4868948
4.0573844
3.6371632
3.3318958
3.2946468
3.5109839
3.6882745
3.4649533
3.033781
3.0682762
3.3949981
3.9300405
4.7150117
5.667491
6.5497738
7.258157
7.7468036
7.6352593
7.1393968
6.5784651
6.0119242
5.6308959
5.3996021
5.2793203
5.233156
5.1930703
5.0344581
4.5804604
3.8613426
3.4615142
3.3848063
3.5389215
3.7684278
3.983172
4.1422416
4.2222761
4.1932421
4.0967274
4.001062
3.8914723
3.7649332
3.7088506
3.8919014
4.3793729
4.1911637
4.2849077
7.4739693
7.500639
7.316022
7.002421
6.6934927
6.4758042
6.3583864
6.3626965
6.3825092
6.272747
6.0084057
5.6910276
5.3602676
4.9748004
4.5492431
4.0795451
3.6356841
3.3782681
3.427735
3.5692464
3.4107194
3.0222491
3.4013968
3.7810833
4.2836686
5.1068391
6.075614
6.9623879
7.6681523
8.1425168
7.9449471
7.4511565
6.863602
6.3409945
6.0664491
5.9446056
5.9133576
5.9233375
5.904172
5.7610493
5.3814625
4.6864402
4.0391102
3.8163888
3.6949549
3.7839742
3.9370784
4.0740129
4.1571541
4.1570248
4.0920494
4.0036749
3.8983655
3.7816947
3.7353528
3.9020686
4.4263525
4.5952456
4.6673859
8.1731479
8.1908959
8.0303701
7.760638
7.4857091
7.267278
7.1181549
7.0238618
6.9457823
6.819334
6.5047493
6.1667417
5.829079
5.4731401
5.0538965
4.6068677
4.1347325
3.7539868
3.6612533
3.7490201
3.7271479
3.6792442
3.8775592
4.2669589
4.7159233
5.5494452
6.4787976
7.3338951
8.0191573
8.4051991
8.1342868
7.6317746
7.0863232
6.6722809
6.5315089
6.5289417
6.586967
6.6479845
6.6463246
6.50527
6.1729902
5.6142217
4.9086649
4.5863924
4.3284521
4.0669927
4.0351289
4.0852061
4.1417197
4.1503839
4.1034446
4.0218393
3.921969
3.8267005
3.8092866
3.9992412
4.5248029
4.9909742
5.1363038
8.6863876
8.6604643
8.4541659
8.1488175
7.8392995
7.5745304
7.3600524
7.1767184
7.0026915
6.8262893
6.6551101
6.4756671
6.2065325
5.89637
5.5337193
5.1630444
4.6840835
4.2921018
4.1093853
4.1870804
4.2681809
4.2886121
4.3776919
4.6422788
5.1319891
5.8488899
6.6855858
7.5392197
8.2477907
8.487367
8.0838669
7.537571
7.0872242
6.8296756
6.7759752
6.8372308
6.9487133
7.0522271
7.0919772
7.0063294
6.7669131
6.385302
5.9038218
5.4336058
5.134615
4.6486519