/*--------------------------------*- C++ -*----------------------------------*\
  =========                 |
  \\      /  F ield         | OpenFOAM: The Open Source CFD Toolbox
   \\    /   O peration     | Website:  https://openfoam.org
    \\  /    A nd           | Version:  8
     \\/     M anipulation  |
\*---------------------------------------------------------------------------*/
FoamFile
{
    version     2.0;
    format      ascii;
    class       volScalarField;
    location    "3600/air";
    object      epsilon;
}
// * * * * * * * * * * * * * * * * * * * * * * * * * * * * * * * * * * * * * //

dimensions      [0 2 -3 0 0 0 0];

internalField   nonuniform List<scalar> 
167754
(
0.29480549
0.29928192
0.27707849
0.23366513
0.18190831
0.14084675
0.12793437
0.1575775
0.24036234
0.37524881
0.54765959
0.73527014
0.91183761
1.041971
1.078257
0.96761905
0.74691905
0.53748071
0.40336854
0.34815084
0.36615901
0.44860575
0.5732239
0.69705118
0.72536464
0.55200687
0.33320083
0.16222803
0.066493719
0.032368606
0.037298342
0.064723325
0.098692734
0.11556794
0.10004073
0.072777025
0.05239253
0.039436146
0.031970269
0.027745869
0.02530786
0.024402106
0.026019641
0.0324446
0.047269371
0.075477893
0.12254148
0.19033658
0.27867626
0.37415702
0.46315375
0.53626899
0.58971527
0.62507356
0.6431784
0.64842834
0.6479431
0.64448217
0.63184531
0.65981995
0.6487712
0.59077268
0.50362914
0.41335551
0.35484764
0.35605999
0.43153208
0.58172017
0.79108857
1.0230201
1.2330438
1.3923085
1.4849928
1.4750466
1.3445592
1.1612716
1.0069182
0.90616922
0.8710857
0.91210511
1.047265
1.2602842
1.4727112
1.5042401
1.1544728
0.74273406
0.42172332
0.23022685
0.16455361
0.19169773
0.26980723
0.36825865
0.42791487
0.39491243
0.32198926
0.26084628
0.22158293
0.20105608
0.1918607
0.18856232
0.1913599
0.2071886
0.24659572
0.31607782
0.41283293
0.52614524
0.63778595
0.72680194
0.79400545
0.85319711
0.90768943
0.9678101
1.0441809
1.123706
1.1992187
1.2702327
1.3336766
1.3643278
0.96820842
0.91692668
0.8052797
0.67346689
0.56326524
0.51499627
0.54606572
0.6492582
0.80461721
0.97990497
1.1376261
1.2772521
1.394344
1.4492356
1.4077771
1.3363709
1.2720095
1.2710088
1.2952553
1.3082405
1.3146149
1.370819
1.484236
1.597259
1.6576032
1.4743414
0.98765564
0.62211331
0.42215359
0.35931066
0.39504492
0.48570776
0.59760166
0.64361217
0.63386697
0.58446196
0.52323164
0.48211112
0.46418717
0.46009713
0.46192583
0.47154969
0.50332752
0.57644921
0.69602966
0.84266542
0.98420121
1.0879421
1.1235681
1.1006768
1.0662156
1.0495686
1.0862842
1.1806535
1.3380373
1.5220491
1.7171117
1.9050662
2.0304959
1.1475087
1.0486815
0.88306873
0.71934532
0.61164042
0.59243907
0.656122
0.76794095
0.8898622
0.99066941
1.0969155
1.2899302
1.6255956
1.7524999
1.569471
1.4888011
1.5325381
1.6290112
1.7062004
1.6960601
2.7974839
2.6863886
1.6123201
1.6577357
1.813079
1.510676
1.1382569
0.80079592
0.63653064
0.56977848
0.57855539
0.68560791
0.77687019
0.83961342
0.829225
0.78595426
0.74669642
0.7377031
0.74963015
0.76266535
0.77075554
0.78012296
0.81159327
0.89245007
1.0325628
1.2040108
1.3543847
1.4396481
1.4273782
1.3228653
1.1815621
1.0585301
1.0325108
1.1240758
1.3152163
1.5917562
1.9092627
2.2236407
2.444942
1.1993005
1.0656823
0.86844424
0.69123321
0.59839843
0.61006004
0.69954502
0.81046643
0.88993997
0.96101079
1.1259044
1.6542986
2.3746079
2.6893246
2.2806625
1.8541884
1.9283241
2.1366001
3.3482714
3.3977332
3.1872644
2.7692097
2.4288113
2.0632534
2.2010077
1.6921128
1.4166896
1.039711
0.88952358
0.78971262
0.76378541
0.82268656
1.2410148
1.4916655
1.4204736
1.2014675
1.0317855
0.99499023
1.0141046
1.0514182
1.0705175
1.0761834
1.0927004
1.1540022
1.2806212
1.4523698
1.6094076
1.6895438
1.656649
1.5037357
1.2769331
1.0445154
0.92884389
0.98920817
1.2027059
1.5085011
1.8852984
2.2575963
2.5246702
1.1568507
1.0086817
0.81054131
0.64267586
0.56405899
0.59515845
0.69801107
0.79650778
0.87919513
0.96929911
1.3226258
2.2770088
3.2701234
3.7820815
3.4016909
2.4059583
2.1269711
3.581608
3.3456493
2.9866833
4.2111924
2.0635355
2.0225561
1.6331344
2.0036721
2.2485505
2.4311852
2.1076293
1.2781788
1.0789414
1.0010468
1.2842228
2.0923002
2.2664675
2.1152867
1.8217587
1.4893023
1.2767865
1.2581408
1.2983287
1.3336243
1.3422091
1.3425541
1.3722714
1.4602428
1.604158
1.7571121
1.8478552
1.8235569
1.6599126
1.3811181
1.0630347
0.85493012
0.8583718
1.0613544
1.3708932
1.7261596
2.0988239
2.3647312
1.0648462
0.92972226
0.75154613
0.60562688
0.53702257
0.57092426
0.67050128
0.77848779
0.90474996
1.0960092
1.8046819
2.990036
4.0306515
4.6241811
4.4306775
3.4223813
3.5096254
3.0013206
6.1036539
3.5245226
1.6632407
3.3768885
1.2952032
0.85027422
1.9032075
1.89156
2.1626748
2.3274536
2.2098624
2.0664596
2.3106427
2.8484033
2.8772636
2.7208961
2.4136018
1.9901955
1.6280483
1.4759338
1.5215507
1.5913003
1.610313
1.5896878
1.5777266
1.61296
1.7062632
1.8332746
1.9314197
1.9322519
1.7868825
1.489853
1.1216425
0.84030454
0.77354789
0.93377155
1.2240996
1.5513502
1.8695498
2.0754632
0.96655049
0.8594697
0.71116599
0.58749012
0.5268426
0.54998476
0.64217882
0.79341357
1.0349315
1.6673465
2.4798948
3.6536693
4.5389736
5.079021
5.0453257
5.8040831
2.8941578
3.3975246
5.0243796
5.5651173
2.496038
0.76117388
2.8842104
2.6117551
2.4504944
2.9443925
3.5618034
3.2101771
3.2246971
3.008144
2.5067879
2.0860214
1.8021427
1.7518861
1.8391701
1.8809667
1.8410229
1.7760899
1.7502303
1.792485
1.8805767
1.9698879
1.9916557
1.8743034
1.5826822
1.194335
0.86580067
0.72871614
0.81442228
1.0430008
1.3141304
1.5599175
1.6969645
0.86320368
0.79091628
0.67962575
0.57960048
0.52269531
0.53678193
0.6397542
0.87255675
1.7570268
1.7158842
2.205046
4.2116431
4.7937517
5.2342919
5.1686966
6.3740831
3.1816996
7.6524119
6.2273571
1.0488399
3.0671205
6.315705
2.3604676
3.1771044
4.168748
4.3169286
3.0466025
2.797123
2.6310847
2.2347638
2.0861052
2.0498449
1.9702136
1.8657311
1.8063018
1.8247751
1.9025939
1.984947
2.0153532
1.9192318
1.6416139
1.2512737
0.89797592
0.70264839
0.69700706
0.82545953
1.0100151
1.1778948
1.25111
0.73995083
0.70103451
0.63107683
0.56326795
0.51403397
0.52794168
0.66977206
0.99551721
1.6613381
2.5320687
2.6068597
2.6828867
5.6257978
7.6667695
7.9928711
5.539703
1.7336538
6.2167966
7.8831957
11.567702
2.0989604
4.92121
3.3398523
4.2547072
4.741953
5.3615144
3.6233668
3.1900379
2.6680502
2.2208309
1.9120161
1.7608706
1.7460731
1.8329611
1.9472519
1.9995448
1.9204758
1.6619481
1.2901334
0.94532925
0.73241989
0.66887196
0.71021676
0.80798383
0.90590323
0.94394576
0.61022876
0.6229305
0.67426297
0.70852836
0.62582608
0.55857207
0.72463874
1.5615472
1.2946924
0.49307938
1.7832106
4.3921211
5.359743
3.6914592
4.593286
6.30222
6.5791982
3.2797359
7.87538
5.3275089
7.050934
7.375075
2.3525441
2.075422
3.636427
1.5416941
1.5078352
1.6004974
1.7705057
1.8883838
1.8625396
1.6608978
1.353007
1.0683573
0.89657563
0.85677107
0.90740265
0.97114625
1.0405147
1.1428992
0.66308875
0.81299925
1.0333058
1.179975
1.0557486
0.68403013
1.1192075
1.1256484
1.4271697
0.89888974
5.8221773
7.8771431
4.0441808
10.188848
6.1832407
5.5007274
2.9860194
3.2263558
2.5807169
2.0595724
2.0622991
2.3566393
1.4946991
1.7273767
1.8165215
1.7317603
1.5295153
1.3215879
1.2039546
1.2801071
1.4154629
1.4712407
1.5366507
1.7029702
1.0205799
1.2408696
1.5483221
1.7371367
1.5663201
0.9096749
0.76192158
0.68886601
5.8888505
1.8048122
2.8670722
3.0285527
2.082729
2.1539337
1.7100365
0.74216422
0.99743869
0.98149567
2.0350364
2.8794225
3.347644
1.9230138
1.7969115
1.6219194
1.5093724
1.7261275
1.9631765
2.0483584
2.1468956
2.3503463
1.584325
1.7970899
2.0990613
2.2559385
2.0018386
2.5415716
0.79205894
0.75564774
4.1677854
1.3008414
3.2766651
1.1178117
3.3483868
0.92264395
1.531088
1.7165266
2.5536532
3.1097025
3.0940112
2.7404186
1.7567851
2.0422405
2.4490193
2.6084795
2.7555913
2.9662778
2.288
2.4259161
2.6385546
2.7050426
2.2983673
3.4411465
3.1544748
1.2491185
0.8885436
0.97353219
0.92005254
1.2979913
1.8673233
0.87983299
3.1250487
1.9724459
2.0417586
1.8827297
3.1915741
2.8458497
3.0936137
3.2816889
3.4815721
3.0383836
3.0738724
3.1556249
3.1163614
5.8326275
4.0288032
2.1114277
2.3767907
0.72932964
0.85784181
3.0800829
2.5457781
1.3403049
1.9966607
3.5933652
3.3856908
5.5828878
3.4546101
3.6691844
3.8574815
3.7289114
3.6728675
3.632359
3.485249
6.6272675
9.5302834
0.9548634
1.1612391
0.48993255
4.3320985
7.043011
4.3825289
5.8989265
3.5870058
3.8832455
4.0761745
4.278389
4.152963
4.0293033
7.9732424
7.3079637
4.73759
2.1560195
1.313013
1.5753067
3.6711476
4.7242725
5.6659922
5.9626138
5.5822192
3.5688948
3.9350688
4.158102
4.6569948
4.4717958
4.2564985
8.0749634
6.9236222
1.0424291
1.7068995
3.0472446
3.8495123
6.7233581
4.3499521
4.4533509
7.0629238
5.1346716
3.4870056
3.9247259
4.1863165
4.8924912
4.631854
4.3126359
7.6563734
6.6227356
5.4147431
2.9825692
4.9141678
4.4731657
4.2495872
3.6278915
8.0814675
2.6192423
2.6723333
3.3550806
3.8305758
4.1276988
4.9935666
4.6979181
4.3310196
4.0197541
6.3906961
9.5708251
2.4058266
5.7555881
6.2783042
11.789712
1.8204952
3.5384053
5.2642229
2.2790436
2.4740492
3.15016
3.6621613
3.9992915
4.8015859
4.5137578
4.1747789
3.9002654
6.0012964
3.7079552
5.5189989
6.2675555
6.3994129
7.395816
2.6156069
3.2750537
3.5171731
1.9980993
2.2515304
2.9067148
3.4454309
3.8210603
4.2827791
4.0381812
3.7835624
3.5906058
5.2807427
3.8357376
1.3709447
9.0734981
5.8432992
6.478151
6.5198091
4.2095558
1.7629945
0.89530385
0.95113963
0.69464657
0.47863354
0.27203827
0.2616788
0.45378556
0.69090058
0.9067637
1.0173625
0.79601437
0.48663621
0.68218799
1.0755586
1.2089323
1.0265601
0.65232757
0.54282887
1.3238707
2.5906334
2.9495684
2.5697889
1.7780935
2.0327218
2.6530637
3.2061041
3.6144288
3.5169151
3.3325577
3.1852064
3.1062787
3.0242324
3.6138701
1.5220687
4.6858063
5.6778007
6.0514064
14.540429
2.9449647
2.1929859
2.8811648
3.8965347
2.3171285
0.9974737
0.57170853
0.38965219
0.4615256
1.1892864
1.3274165
1.5481324
1.504794
1.2334915
3.4725753
4.3574211
2.4984813
0.45849912
1.7295594
3.5696619
4.8813701
3.2062247
2.6931687
2.0449586
0.76121067
1.6716751
1.8449565
2.4174155
2.9733378
3.4060579
2.6642381
2.5397649
2.4861287
2.5264482
2.5783247
3.2989396
2.370978
7.0259697
4.3824194
5.1369542
5.1397409
11.046594
5.0468483
1.9089515
1.6597565
2.177427
0.25116826
0.3147197
0.44449223
4.2195361
3.562117
1.9590375
3.8912525
4.2182742
3.3550374
2.4521587
1.9162521
0.83185907
1.6389033
1.6987531
2.2275532
2.7841568
3.2457375
2.0971534
1.9827471
1.9673474
2.0793243
2.2692705
3.4037698
2.5718402
2.0166581
2.8457715
3.9031395
4.6696808
4.6206769
3.3604506
2.2542525
5.4423833
0.75333605
0.8213389
0.83004173
1.2916555
2.0310875
2.526936
2.4137453
2.6353191
2.4521288
1.7826379
1.330078
1.1677448
2.0392077
1.4480703
1.8028752
3.3924303
3.9848606
4.2865474
3.9310925
1.9023813
2.3100319
1.9583811
1.1319218
1.6757158
1.6017096
2.1123097
2.6903005
3.1951459
1.8434694
1.7454934
1.7439626
1.8595294
2.0746734
3.7290595
3.2811633
2.4501104
1.6462339
2.5653709
6.2684276
7.4846177
8.0471234
6.1061856
1.9570872
1.6373232
2.4161147
3.6245415
4.6691266
5.4698261
5.7216529
4.9774786
3.2832381
1.8613966
1.5019032
2.6546521
1.2946856
2.3428491
5.0534055
3.7515446
1.8429598
1.806663
2.9114316
1.5308441
1.9499599
1.2490084
1.7221149
1.5595167
2.0809029
2.6771344
3.1889211
1.7372243
1.6516969
1.6539713
1.7505782
1.9328303
2.1639128
3.949525
8.2367657
1.2262684
1.8781093
2.7996804
6.3236211
4.4195889
3.5267029
1.9187519
1.6308653
1.9453086
0.30128805
1.184918
1.2675665
1.7597289
2.3121137
2.7123331
2.695894
1.9750283
0.86938881
0.51369263
0.85837986
0.90623234
0.94132924
2.1488889
3.1581464
3.2612644
2.798939
1.9599578
1.9372415
2.1363569
1.1316063
1.1215197
1.5360215
2.0773597
2.6618152
3.1512934
1.7141389
1.6397834
1.643896
1.7202825
1.8610855
2.0258172
1.9774816
3.8426827
1.883026
0.4497193
1.5066334
2.254618
7.9882679
7.4973739
2.5665875
0.53158047
0.97197146
0.81436461
0.96262221
1.0986599
1.152067
1.093003
0.88792152
0.59282498
0.413355
0.42348029
0.6405293
0.64618192
1.3989269
3.2329502
3.5735924
2.9249628
2.5037191
2.2605579
2.2294946
1.1191229
1.0485963
1.5032973
2.0552566
2.6113647
3.0637593
1.739485
1.6759868
1.6812686
1.7407597
1.8481034
1.9677158
1.9446271
1.6143691
2.6890542
0.95368557
0.95049964
1.3203455
3.5159715
2.2889669
1.3937618
0.53173201
0.86625092
0.71165384
0.81979066
0.96386602
1.0912039
1.1376165
1.0832419
0.89892066
0.62515719
0.41185892
0.3564878
0.50950551
0.46627577
0.80826365
2.0028057
6.8522276
2.7468682
2.2695061
1.91251
1.5170045
2.1589679
1.0487191
1.1381075
0.98084602
1.4668896
2.0105045
2.5228163
2.9282877
1.792252
1.73866
1.7435647
1.7892919
1.8731831
1.9651736
1.9471813
1.6929467
1.2253441
0.80659242
1.9746881
2.8024419
3.5110544
2.4232869
1.4525317
0.59166649
0.6110505
0.68774713
0.80286881
0.95802281
1.0884784
1.1316564
1.0771439
0.90218316
0.64013893
0.41475845
0.32600878
0.45979944
0.4051115
0.30713394
1.1529012
3.7495282
4.6087125
5.3856153
4.7425538
3.4349528
1.3359875
1.1704918
0.79559502
0.89886747
0.43782793
1.1737275
1.3659813
0.96020342
1.4361498
1.9488968
2.4070459
2.7609623
1.8598797
1.8129128
1.8139479
1.8475542
1.9165019
1.9959084
1.984643
1.7797253
1.32206
1.7587817
2.4126157
6.5407623
3.4980041
2.4947429
1.6088935
0.6106822
0.60101565
0.67107777
0.79139777
0.95091943
1.079117
1.11855
1.0656249
0.89880166
0.64667509
0.41900432
0.32225804
0.47498354
0.49299137
0.17476906
0.64046758
0.98329504
1.3469524
2.6177297
0.64140341
1.2071389
1.4846226
0.83180286
0.83841495
0.79220893
1.0067229
0.42599118
1.5897394
1.8444472
0.9729266
1.4101123
1.8818533
2.2845592
2.5888493
1.9352011
1.8887641
1.8799597
1.902583
1.961978
2.0407164
2.0483459
1.8731842
1.3879008
2.0462199
2.987386
8.3491476
9.1977955
2.4232189
1.9014251
0.6278564
0.58518246
0.64940295
0.7692325
0.92594005
1.0486511
1.0849202
1.036705
0.88103371
0.64174302
0.41704328
0.3215901
0.50374093
0.62677827
0.47875376
0.43719826
0.58576882
0.82766343
0.72533065
0.40882405
0.62659414
1.3954335
3.4345972
1.0364297
0.95196386
0.75209134
1.1988205
0.43881297
3.9195227
2.6745326
1.0670074
1.4102054
1.831292
2.1790855
2.4382569
2.0132591
1.9616342
1.9362952
1.9423707
1.990707
2.0701669
2.0962321
1.9248352
1.377186
2.2647672
2.7400317
4.8800469
2.3905537
5.6264874
2.4761833
0.59152644
0.53562558
0.59876918
0.71667883
0.87120436
0.99437491
1.0310613
0.98584341
0.84174464
0.61644813
0.39644019
0.29763944
0.48798586
0.68469118
1.0780864
0.58500691
0.81181494
0.28563591
0.43710376
2.1653353
2.0583563
1.6036589
0.50337859
0.49932019
2.7419234
1.2924807
1.1974069
1.4615186
1.8152066
2.1061481
2.3243508
2.0859754
2.0234121
1.9778267
1.9580076
1.9879154
2.0638037
2.0930379
1.8866461
1.2928467
0.89626563
1.7950328
2.0896607
3.1428965
1.4253615
1.5805841
0.47374939
0.70822525
0.86572018
1.0654082
1.3533458
1.6823373
1.9264908
1.9531695
1.6310018
1.0445697
0.54280471
0.33241028
0.37893182
0.62703265
1.0524886
0.58911473
0.87352229
0.21499019
0.67562775
1.3266101
3.0980969
1.4037269
1.354152
1.5544423
1.8333903
2.0675254
2.2490654
2.1428208
2.0643505
1.9944276
1.9421189
1.9439817
2.0069672
2.0164551
1.742961
1.1318292
0.76913038
1.0947005
1.047806
2.3682943
0.98172698
0.6695541
0.53461304
0.50168236
0.44728571
0.40773337
0.43702605
0.89116559
1.0180324
1.3152502
1.7425056
2.2992665
2.8522618
3.1990701
2.8919826
1.7926531
0.83545103
0.45159753
0.4450557
0.51128498
1.081296
0.97128074
0.39514487
0.2606578
1.6199987
3.4816702
1.5215443
1.5157435
1.6651125
1.8733244
2.0558857
2.2039547
2.1705257
2.0739786
1.9780156
1.8889296
1.8529889
1.8901318
1.8546019
1.5036145
0.91653058
0.61679802
0.86964385
1.130126
3.1753894
2.1835743
1.658119
0.67867577
0.57588307
0.48793978
0.43867018
0.43460547
1.0266723
0.91286852
0.87935879
0.97977131
1.1015265
1.1730854
1.1482149
0.93619477
0.62756061
0.42762433
0.28030275
0.28120674
0.45995353
1.0257965
0.72139217
0.34335232
1.6603199
1.3473597
1.6238899
1.6600987
1.7711877
1.9203195
2.0598422
2.1750218
2.155206
2.0435445
1.9220881
1.7929409
1.7114664
1.7103209
1.6115789
1.2034886
0.69895403
0.50585283
0.87308468
1.1220106
3.1041297
2.4428492
1.8112135
0.72422095
0.58545457
0.52490874
0.51905014
0.47399854
0.96025246
0.63205287
0.22738738
0.14463107
0.24428182
0.080095042
0.067462698
0.13564726
0.048572824
0.049723266
0.068298468
0.37126351
0.74794315
0.52879954
0.21891527
0.099297844
0.58352012
1.9481638
1.443125
1.7075582
1.7740062
1.857636
1.9632133
2.0668046
2.1531934
2.0865994
1.9672735
1.8205787
1.6497011
1.518647
1.470978
1.3085709
0.89609425
0.53380969
0.45874984
0.51818484
0.97129858
0.96661492
0.89613111
1.3695138
1.2407718
0.72216329
1.0576965
1.8677084
1.5545915
1.315457
0.35818902
0.11230059
0.078866589
0.04136613
0.039452741
0.044190346
0.054215631
0.074049121
0.17541306
0.29226116
0.62747608
1.6543844
0.4265828
0.27318762
0.24557053
1.0807069
1.1216205
1.5172483
1.7706884
1.8549442
1.9200893
1.9968655
2.076358
2.1449503
1.9602595
1.8399219
1.6701353
1.4570866
1.2788881
1.1852995
0.98412382
0.63891394
0.4392645
0.44376942
0.51138765
0.96757682
0.87146631
0.65798994
0.44319206
0.3477367
0.39680967
0.49284416
0.67646766
0.83595406
0.86443179
0.4611073
0.17449269
0.103965
0.12748694
0.17854152
0.22328281
0.28798159
0.42435982
0.52642787
0.51311578
0.51190674
0.47366153
0.21756437
0.094617037
0.74261384
0.87677707
1.2137315
1.5754451
1.8156141
1.9082985
1.9660047
2.0289273
2.1017051
2.1678241
1.7856234
1.6612337
1.4713127
1.217523
1.0054684
0.88139111
0.6896599
0.46653212
0.39505531
0.43726404
0.50137519
1.0437104
2.8018253
0.71006378
0.33650665
0.13852654
0.098946629
0.092818988
0.083818822
0.13821814
0.22443251
0.24011782
0.13793292
0.04894399
0.046743053
0.11055551
0.12348586
0.13560447
0.20316422
0.32413906
0.72414362
0.39419279
0.29556835
0.11611174
0.056405962
0.31426373
1.2624581
0.98529857
1.2917834
1.6191411
1.8420979
1.9423258
2.0064565
2.0736549
2.1550524
2.2299603
1.5625638
1.4353919
1.2298171
0.94414911
0.72433068
0.60185369
0.47010216
0.37469734
0.38108305
0.43956497
0.50691301
0.92270231
0.79099188
0.18900627
0.2361027
0.1819559
0.097475292
0.091450441
0.091178748
0.048259204
0.88502062
0.87944612
1.079146
1.3613054
1.6517601
1.8626448
1.9759024
2.056387
2.137616
2.229951
2.3136497
1.3008296
1.1738369
0.95847296
0.66888548
0.4745556
0.39335233
0.34956093
0.35269962
0.40552109
0.48181303
0.57606188
0.99681858
0.78906239
0.12384682
0.1839061
0.19523762
0.10632803
0.05809609
0.12439483
0.24314239
0.38929041
0.39540276
1.3239217
0.97196665
1.1638824
1.4196531
1.6824475
1.888682
2.0180865
2.1159913
2.2062768
2.2977229
2.3794426
1.0214643
0.89719727
0.68372405
0.42883701
0.30046733
0.29129764
0.33174386
0.4009315
0.48780583
0.59125762
0.72572067
1.4024925
1.2853574
0.69920223
0.40348875
0.43210874
0.38082912
0.096466773
0.41939002
0.33894607
0.3992975
0.52881917
0.75170309
0.85597841
1.0487534
1.237316
1.4662225
1.7128786
1.9202607
2.0619087
2.1657171
2.2472675
2.3190962
2.3846211
0.75324936
0.63282148
0.43974204
0.26291081
0.23226969
0.29744668
0.39949387
0.51089724
0.62356061
0.74569201
0.88735212
1.0899969
1.822708
2.1344134
0.75003899
0.87172386
0.62134246
0.29832234
0.40304841
0.39683321
0.4874581
0.40508351
0.29248142
0.64371926
0.96932584
0.9052647
1.104637
1.2878929
1.4967546
1.7370451
1.9449447
2.0849098
2.1731032
2.224477
2.2604415
2.3003262
0.52245997
0.40840586
0.26117867
0.19777761
0.25562459
0.37778257
0.51984296
0.65486994
0.77949017
0.90103622
1.0217098
1.1726936
2.2500523
4.1869048
1.0344641
0.84625419
0.83955953
1.2605362
0.43955317
0.42127876
0.43060664
0.52105491
0.087624733
1.1321254
0.68785973
0.663938
0.92141853
1.1308094
1.3048021
1.5045047
1.7421072
1.9397845
2.0555536
2.1052273
2.1119744
2.1067656
2.1191624
0.34434588
0.25128915
0.1835635
0.21029412
0.3293029
0.49211816
0.65575481
0.79703634
0.91684394
1.0201086
1.1160727
1.2562554
2.5861796
2.3030772
0.67640621
0.67470895
0.37933806
0.20143577
0.10943963
0.38010302
0.30288856
0.19677532
0.20991535
1.5251697
0.61088031
0.67258352
0.90520083
1.1207961
1.2859535
1.4822977
1.7106836
1.8772789
1.9445116
1.9414806
1.9031974
1.8642027
1.8539422
0.22888543
0.18419406
0.17453643
0.26007592
0.42134969
0.60740103
0.77443583
0.90554198
1.0050121
1.0818751
1.1683706
1.3364106
2.8172989
2.9110698
2.9021492
0.21591299
0.41115963
0.18954383
0.26759912
0.10430904
0.18712812
1.186045
0.71247585
0.68794746
0.67486711
0.86821342
1.0755354
1.2339794
1.4241661
1.6258266
1.7356271
1.7372693
1.6824896
1.6135895
1.5578744
1.5328427
0.17533212
0.16008594
0.19351446
0.32063899
0.50625819
0.69676962
0.85088034
0.95943549
1.0315893
1.0894953
1.1779442
1.3587074
1.7310136
3.4009915
3.7293621
2.8052425
0.28999478
0.23632206
0.16464963
1.3158981
0.7349383
0.74683333
0.69268353
0.82990923
1.0086144
1.1548933
1.3278211
1.4785988
1.5095842
1.4429159
1.3536512
1.2801687
1.2309532
1.204504
0.14460954
0.15440239
0.22272291
0.37042735
0.56112672
0.73853534
0.86747451
0.94898176
1.0032563
1.0641072
1.1757395
1.3827483
1.7296624
2.2438609
4.3953155
4.5996438
3.1852004
0.65178978
0.49208526
0.25803476
0.18301698
0.33135746
1.3487261
0.74790584
0.7888942
0.73540343
0.81288829
0.94313813
1.0592583
1.1981631
1.2753214
1.2173388
1.0978116
1.007103
0.96324191
0.94659167
0.9388677
0.1261273
0.15605466
0.24359754
0.39310357
0.57043688
0.72115632
0.82053102
0.88350035
0.94207134
1.028818
1.176025
1.4216314
1.7577565
2.1679736
2.4780245
2.2965071
4.0384075
0.74617761
1.2821691
1.4054755
1.0607274
0.71862417
0.40345735
0.77934673
0.65206404
0.74383542
0.81463899
0.80099238
0.83347553
0.90835215
0.97456978
1.0512776
1.0403226
0.90151342
0.76625842
0.72068469
0.74084317
0.77749078
0.801636
0.11788941
0.15812436
0.24687187
0.38275978
0.53250628
0.65052759
0.72742584
0.79102805
0.87335232
0.99572238
1.1837184
1.4405888
1.7354764
2.0228682
2.1816372
2.0620659
1.7243778
1.6362802
0.84842117
0.95467565
1.5437448
1.96524
1.4406561
0.12240984
1.7957384
1.1893331
0.63208883
0.70854985
0.82430645
0.87220854
0.89437846
0.9261545
0.93046677
0.92008798
0.81328855
0.61993498
0.52637189
0.56945904
0.66961525
0.77801009
0.88403384
0.12084012
0.16028754
0.23608426
0.34610008
0.46118752
0.55049777
0.62155876
0.70381209
0.81450232
0.96617749
1.1688475
1.4026665
1.6277559
1.7873981
1.8098901
1.7121703
1.426966
0.73293011
0.59521005
0.73965086
0.50541431
0.37438896
1.5438808
1.9001747
3.3792238
7.711414
2.202219
1.6503095
0.8709136
0.64743731
0.67457251
0.80772801
0.92362968
0.97967133
0.99624036
0.94969072
0.8401001
0.63837016
0.42183332
0.42087397
0.55122409
0.70890538
0.87916639
1.0107586
0.14136859
0.17068948
0.22229074
0.29895527
0.37981392
0.45139271
0.53045308
0.63268869
0.75939004
0.92045191
1.1057047
1.2924308
1.4359513
1.4826969
1.4342524
1.320274
1.0677638
0.70414314
0.67143039
0.7130732
1.4477947
2.4729065
6.4660125
3.3995574
2.5117497
4.4985771
4.1174757
2.2579349
1.9808456
1.2348523
1.0458071
0.83488841
0.75429668
0.80991008
0.94338063
1.0592698
1.0980892
1.0360776
0.84146422
0.54289239
0.32782751
0.41645632
0.5867396
0.76284346
0.95980013
1.0903812
0.19083776
0.19849833
0.21741259
0.25773579
0.30927583
0.37245097
0.45950313
0.56879821
0.69580027
0.83969839
0.98982918
1.1199767
1.1869019
1.1707176
1.0998505
1.021864
0.93700219
0.84347216
0.9532865
1.3170215
1.8171985
2.1998184
4.3203316
2.5536388
2.5829741
2.747855
4.7323571
4.2211259
8.0350862
1.4205239
2.6480491
1.4643044
1.2964839
1.1446058
0.99750295
0.9319565
0.99338764
1.1237589
1.2078105
1.170381
0.93071774
0.54255072
0.31513674
0.4452267
0.61929712
0.80195535
0.99636149
1.1170739
0.25846925
0.24118585
0.22434599
0.22998978
0.25823031
0.31453608
0.39900753
0.49986461
0.6115452
0.72663424
0.83561726
0.91105508
0.9257505
0.88438057
0.82653586
0.86177696
0.94613882
1.0300371
1.2645614
1.7127632
2.1555509
2.4238959
2.5414607
2.4640481
2.3562126
2.2358691
2.0961731
1.8083176
3.2662311
3.0434303
0.75010581
2.2835332
1.6268069
1.6083128
1.5038417
1.4128865
1.3045415
1.1895893
1.1445773
1.2163309
1.3201029
1.3281535
1.0891548
0.62911826
0.33921293
0.46868286
0.63362302
0.81510747
0.99204139
1.0984459
0.314257
0.27812706
0.23283295
0.21159944
0.22285597
0.26917535
0.34068883
0.42356437
0.51155368
0.59525966
0.66459071
0.6956006
0.68263868
0.62512161
0.63129966
0.78167047
0.98242325
1.1945048
1.5257334
1.9717628
2.3149177
2.4534061
2.4272666
2.2710438
2.0551348
1.7992734
1.5138242
1.1700368
0.75204149
1.2930947
0.48144933
0.14379867
0.12526778
0.25681873
2.470157
1.6549361
1.6937594
1.6406823
1.5923653
1.53701
1.4596915
1.3791644
1.3701885
1.4484753
1.4959902
1.2938873
0.78632545
0.37255705
0.47637375
0.62646794
0.79777652
0.95318001
1.0429933
0.3319876
0.28681154
0.22851772
0.19405616
0.19528415
0.22954552
0.28316416
0.34424978
0.40733398
0.46236617
0.49877686
0.5039868
0.46284312
0.42024801
0.49944156
0.71212379
0.98416891
1.2951284
1.692494
2.1039419
2.3488441
2.3827482
2.2638263
2.0403654
1.756586
1.434235
1.0877387
0.72708658
0.43053983
0.34391152
0.3250599
0.42810871
0.56234058
0.66462004
0.42790823
1.2448465
1.6294717
1.7366607
1.7238683
1.6993637
1.6774653
1.6470696
1.5951891
1.5574522
1.5980611
1.6682726
1.5272592
1.0144822
0.42997235
0.4631079
0.59643568
0.75360542
0.88742256
0.96068783
0.32017298
0.27097563
0.21126039
0.17516983
0.17217542
0.1957033
0.2327043
0.27384914
0.31441129
0.34607369
0.35976077
0.34718118
0.29625874
0.29000611
0.40132528
0.62216178
0.92866401
1.3115393
1.7544286
2.1288167
2.2966961
2.2629853
2.0939626
1.83279
1.5088515
1.1464164
0.8018587
0.57169669
0.52185541
0.56328822
0.59706735
0.68776841
0.72019359
1.0517448
0.7539124
0.36207151
0.56097587
0.56336081
1.1685905
1.5906744
1.7527554
1.7739923
1.7628858
1.7556369
1.7536135
1.7395011
1.7177409
1.7451651
1.8335912
1.7657725
1.3060497
0.57645854
0.42957116
0.54357321
0.68794722
0.80498862
0.86491687
0.3200831
0.2638463
0.2016914
0.16549085
0.16119305
0.1789674
0.20600459
0.23395383
0.25706594
0.27037151
0.27246567
0.25106709
0.20837034
0.2242689
0.3236251
0.51537689
0.81929137
1.2403703
1.7141827
2.0686421
2.190836
2.1235627
1.9321183
1.6335448
1.2641117
0.90749882
0.68356017
0.64163676
0.69697032
0.73518576
0.72833887
0.73166382
0.73776021
0.73793922
0.69413141
0.97766011
0.77859228
0.74103825
0.76652678
0.58862118
0.9801006
1.4923061
1.7354907
1.7990822
1.8009607
1.7980896
1.8074236
1.8177643
1.8237344
1.8602569
1.9682796
1.9730174
1.6136897
0.8820846
0.39517375
0.47394265
0.60884566
0.71832245
0.77157343
0.36957784
0.3042739
0.23036581
0.18608296
0.17860335
0.19517552
0.2202105
0.2433907
0.25813884
0.25860638
0.25182425
0.23297671
0.19981098
0.20760848
0.27106633
0.41306316
0.67891821
1.0968467
1.5837562
1.9366323
2.0424103
1.9515039
1.7175674
1.3644435
0.99156276
0.74580916
0.69476979
0.76906202
0.8538954
0.88082247
0.84013034
0.78385499
0.73823249
0.70437822
0.65031712
0.60210915
0.88366794
0.79923035
0.50232015
0.49582038
0.73778164
1.2564251
1.613078
1.7636124
1.8060009
1.8131014
1.8261665
1.8491363
1.8768275
1.9282028
2.0454779
2.1110809
1.8630654
1.2285186
0.54340262
0.40636601
0.5259853
0.63796586
0.69280412
0.48404917
0.41498645
0.32136921
0.25796123
0.23913292
0.2526588
0.27891676
0.30319307
0.31663708
0.31107262
0.29799219
0.28746979
0.2620832
0.24168987
0.25552753
0.33792015
0.53945165
0.91196418
1.3849833
1.7353473
1.8282096
1.6992608
1.4048878
1.0330934
0.76213105
0.70025441
0.78577555
0.93774633
1.0586059
1.0957633
1.0424933
0.95213402
0.86039236
0.78899721
0.70133582
0.60556001
0.51710606
0.44951679
0.41936492
0.42128486
0.54596812
0.93522775
1.3487592
1.6049302
1.7301181
1.7838546
1.8101904
1.8418866
1.883615
1.9460782
2.0615277
2.1598019
1.9994178
1.4894076
0.83058049
0.41119817
0.44793324
0.56910807
0.62988002
0.66553062
0.59370586
0.48510328
0.39588764
0.35583921
0.35820195
0.38105535
0.40590154
0.42059496
0.4163789
0.40267358
0.40100827
0.38136589
0.33826405
0.29717494
0.31027053
0.43017218
0.72328626
1.1529256
1.4840791
1.5484595
1.3635628
1.0279088
0.73042978
0.64660194
0.7286135
0.91492509
1.1323897
1.2942458
1.3523963
1.2997395
1.1910529
1.0630088
0.94325276
0.81884801
0.69626461
0.58772678
0.50327992
0.44610173
0.41918174
0.45686829
0.66568951
1.012738
1.3287191
1.5441482
1.6764493
1.7460537
1.7940285
1.8469587
1.9154803
2.0202179
2.1193767
2.0108818
1.6114753
1.0441582
0.58149355
0.43639241
0.52368501
0.5961977
0.91219283
0.83667567
0.71002048
0.59673469
0.53087059
0.51301849
0.52420137
0.5441772
0.55918839
0.56080149
0.55190354
0.54127125
0.5148443
0.46546758
0.4012954
0.35692273
0.38551096
0.56536142
0.92885126
1.2205858
1.2359392
0.99337667
0.67852982
0.54756182
0.61672441
0.78954845
1.0482081
1.3185307
1.5188451
1.6020319
1.5574736
1.4394066
1.2833919
1.1138325
0.96397936
0.8334929
0.72621966
0.64900347
0.60029896
0.55783864
0.50609943
0.54242667
0.73874818
1.0226018
1.2879356
1.4911818
1.6234074
1.7015817
1.7690897
1.8419505
1.9321643
2.0082846
1.9233913
1.6082776
1.1446595
0.7268585
0.51874904
0.54553886
0.61660752
1.2152034
1.1361676
0.99210761
0.85302814
0.75978593
0.71763892
0.71040106
0.71826981
0.72922348
0.72505859
0.7064021
0.68523567
0.65270542
0.59483752
0.52068523
0.44826775
0.41969782
0.50307494
0.75422126
0.99099081
0.94816185
0.66910158
0.45263158
0.49059731
0.64507011
0.86143869
1.1611976
1.468007
1.6986053
1.8056273
1.7730557
1.6509961
1.4752904
1.262061
1.1145263
1.0029139
0.92136957
0.87389129
0.85838392
0.84908127
0.78232858
0.62515334
0.62204763
0.80731736
1.0532475
1.2828246
1.4581067
1.5729034
1.6597421
1.7384216
1.8151721
1.8630746
1.7846648
1.5326451
1.1641662
0.8163341
0.61846392
0.61524855
0.66527344
1.5508234
1.4701163
1.3139555
1.1547013
1.0361368
0.96841097
0.94072479
0.9302464
0.91834225
0.89380756
0.8557891
0.8198422
0.78073767
0.72465787
0.63615838
0.550371
0.49310705
0.52313189
0.69003724
0.84451108
0.75684583
0.47682709
0.41375954
0.53506728
0.70955391
0.92603587
1.2367408
1.5573498
1.8041356
1.928268
1.9054655
1.7710566
1.5661467
1.3658332
1.2602208
1.1961962
1.1609383
1.1583531
1.1884396
1.2292163
1.2108023
1.0573692
0.80817928
0.79467957
0.94332783
1.132186
1.3065182
1.4397773
1.5435409
1.6287127
1.6952377
1.7199043
1.6441346
1.4420686
1.1543308
0.88054549
0.72374632
0.70531128
0.72387117
1.870492
1.8032212
1.6514295
1.482324