/*--------------------------------*- C++ -*----------------------------------*\
  =========                 |
  \\      /  F ield         | OpenFOAM: The Open Source CFD Toolbox
   \\    /   O peration     | Website:  https://openfoam.org
    \\  /    A nd           | Version:  8
     \\/     M anipulation  |
\*---------------------------------------------------------------------------*/
FoamFile
{
    version     2.0;
    format      ascii;
    class       volScalarField;
    location    "3600/air";
    object      k;
}
// * * * * * * * * * * * * * * * * * * * * * * * * * * * * * * * * * * * * * //

dimensions      [0 2 -2 0 0 0 0];

internalField   nonuniform List<scalar> 
167754
(
2.1876076
2.2030286
2.0843087
1.8534778
1.5662277
1.3241987
1.2502557
1.4428697
1.9077869
2.5539909
3.268021
3.9578476
4.5441711
4.9279157
4.9722063
4.5635946
3.8450601
3.1476504
2.6947537
2.5771462
2.8090443
3.3124939
3.9372215
4.4851154
4.530894
3.685949
2.6097051
1.6133326
0.88855191
0.52488005
0.53951948
0.82136436
1.1428244
1.3330704
1.2680935
1.043225
0.82831641
0.66537225
0.55566854
0.48713872
0.44590093
0.42687898
0.4381583
0.50031584
0.63821854
0.87081366
1.2019282
1.6087284
2.0672581
2.5143635
2.9079856
3.2251473
3.4617807
3.6246047
3.7225644
3.7621038
3.7749172
3.771664
3.7262939
3.7781145
3.7346124
3.506024
3.1517406
2.769343
2.5112799
2.5241438
2.8693731
3.4912142
4.2638007
5.0370645
5.6904575
6.1580149
6.4241831
6.3828899
6.020297
5.5535062
5.1012903
4.8306898
4.8077026
5.0924099
5.7025479
6.5082648
7.1969405
7.2095454
5.9306088
4.4071821
3.023154
2.0068968
1.5284886
1.6562487
2.1221855
2.6677761
3.0405205
2.988169
2.6455907
2.2868629
2.009606
1.8350777
1.7403481
1.6956212
1.6953267
1.7703123
1.9701671
2.3127497
2.7592908
3.2423133
3.6871558
4.0281857
4.2668916
4.4812174
4.6768327
4.8886387
5.1495907
5.4281783
5.6902444
5.929969
6.1345244
6.2286435
4.91143
4.7499061
4.3700645
3.8921493
3.4698078
3.2764606
3.4020975
3.8066712
4.3779894
4.9783083
5.4913236
5.9269561
6.2610013
6.420335
6.3783443
6.246143
6.1571215
6.1848116
6.2497095
6.2946519
6.3768366
6.6378846
7.0513814
7.3215707
7.4578523
6.8395044
5.2514525
3.8712806
2.9510357
2.5674648
2.6956627
3.1006798
3.6304197
3.9163507
3.9073753
3.752706
3.4918639
3.2681982
3.1375195
3.0830655
3.0721972
3.1035274
3.227803
3.517115
3.9777754
4.5150381
5.0045045
5.348806
5.4735007
5.3938831
5.2889121
5.2356764
5.349221
5.6498429
6.1395462
6.7086296
7.2763885
7.7922179
8.118991
5.5294131
5.2374325
4.7056668
4.1330215
3.7268242
3.6449125
3.8793593
4.2845073
4.7105825
5.0564333
5.4035762
5.9545043
6.7223574
6.9529616
6.7788148
6.8137806
7.0592398
7.3757957
7.5325278
7.4347241
6.5836787
6.4576164
7.4424944
7.6522701
8.1118102
6.9297349
5.7200599
4.5239971
3.8679919
3.5203961
3.5047958
3.8965525
4.3306397
4.5758113
4.6244392
4.4748892
4.3137452
4.2130037
4.239211
4.2792394
4.3121111
4.3515745
4.4660413
4.7504467
5.2295505
5.7909849
6.2608926
6.5170339
6.4863816
6.1658682
5.7380535
5.3437698
5.2381966
5.518412
6.1120926
6.9430313
7.8275029
8.6443247
9.1873342
5.7165715
5.3288165
4.6938064
4.0743366
3.7194622
3.7524752
4.0744461
4.4608254
4.7298164
4.9708878
5.503429
6.9655891
8.686259
9.2116028
8.269044
7.8159259
8.2600172
8.87093
7.4758497
7.4530205
7.0265568
6.3816831
6.0414413
8.7622758
5.8736403
7.5488905
6.6221032
5.4298656
4.88581
4.4632652
4.2506952
4.4940721
5.5881517
6.7025749
6.6850726
6.0542224
5.3635355
5.1235641
5.1428789
5.2635402
5.358336
5.4049587
5.4742926
5.6793063
6.0851438
6.613311
7.0764468
7.3036881
7.2101815
6.76858
6.1010485
5.3662048
4.9445408
5.1034651
5.7708258
6.715967
7.7758678
8.7366946
9.3872883
5.5933202
5.1543759
4.5132165
3.9068961
3.6032327
3.7159998
4.0906687
4.4316925
4.6988776
4.9966108
6.0910655
8.6792853
10.993195
11.974738
11.006424
8.9601247
8.7760433
7.8651811
7.4275007
6.74517
5.0573458
2.0957155
5.3582786
4.7567459
5.5778218
5.8772413
5.905472
5.3702242
6.3269802
5.5812678
5.2252245
5.6717084
8.1839989
8.9456745
8.7204399
7.9705358
6.9819216
6.1277795
5.9260973
6.047328
6.1988724
6.2814361
6.3159504
6.4167156
6.6860113
7.1102592
7.5424197
7.7892392
7.7177278
7.266137
6.4721881
5.4842744
4.7331672
4.6656205
5.298563
6.2786443
7.3110015
8.3001203
8.9750465
5.2890653
4.8805168
4.2891193
3.7568611
3.487139
3.6248781
4.0026189
4.3769976
4.7961057
5.414426
7.4721984
10.513745
12.867753
14.076032
13.619874
11.532879
7.6639331
6.8717363
6.7938486
3.3600706
2.9978728
7.7196808
3.9519583
2.2349388
3.538682
5.238862
5.5588363
5.8745477
5.6453176
5.3781888
8.9744164
10.324685
10.519806
10.269338
9.5682088
8.4545066
7.3668244
6.666984
6.7069455
6.9575638
7.0885521
7.0854055
7.0736129
7.179798
7.4430075
7.7866363
8.0431883
8.0386994
7.6529969
6.8372471
5.7189429
4.7153482
4.3642514
4.8393492
5.7707467
6.7681696
7.6615009
8.2065695
4.9479316
4.6121353
4.1071233
3.6538182
3.4233842
3.5283011
3.8966717
4.4497407
5.2598625
4.5634549
9.3706388
12.181679
14.127585
15.254356
15.205539
9.9432465
6.788248
4.919252
10.031899
10.815643
3.8607724
1.924996
4.3642564
6.4156348
6.2330628
7.1763939
8.029299
11.2642
11.423734
10.989702
9.8170311
8.7396673
7.9012907
7.4802125
7.6710668
7.8614047
7.8319221
7.6907288
7.6175544
7.7155837
7.9348616
8.1570577
8.2077645
7.9116567
7.1405946
5.9900075
4.8400712
4.2145553
4.4061405
5.1487966
6.0210873
6.7616188
7.1540553
4.5648617
4.3303485
3.9421714
3.5745248
3.3681734
3.4528196
3.884259
4.754522
4.7492518
4.7113873
5.61225
8.6955496
14.808073
15.697934
15.638985
11.064368
4.6657243
13.234061
11.539092
1.560506
4.7697505
7.6573505
6.3655828
7.2338918
8.5073386
8.7964723
11.054014
10.51352
10.150876
9.180619
8.5414224
8.3847131
8.2286482
7.9943111
7.8280269
7.8397883
8.0071337
8.1981351
8.2702658
8.0424151
7.3351163
6.204968
4.9938325
4.157741
4.0055786
4.4252262
5.0536891
5.6017947
5.8402025
4.0983328
3.9703869
3.7207319
3.4614541
3.2816597
3.3871024
4.0018804
5.2055679
4.6100407
3.8197046
3.8499854
6.6756957
10.771048
13.179717
13.47831
10.440926
2.8721137
7.1624255
13.461405
10.905312
3.6868734
5.9479902
7.4218826
8.7287056
9.346269
10.141688
12.092254
11.253246
10.036743
8.9323451
8.1428053
7.7268145
7.645754
7.8315345
8.1019152
8.2314452
8.0561281
7.4118257
6.3460976
5.1738908
4.2843083
3.9217886
4.0286059
4.3614011
4.6807235
4.7826567
3.6066545
3.6616448
3.8353001
3.8937277
3.5256156
3.4356818
4.2158113
4.4579165
3.9232359
1.0895781
3.3681095
9.3963716
10.491513
8.0765308
9.3269671
11.579626
5.8368097
4.681874
8.3130723
9.9711027
11.941975
12.435732
9.1800982
8.5218183
7.8828673
7.0843853
6.9599006
7.1793901
7.6210943
7.9369469
7.9048706
7.4031293
6.5143631
5.5428717
4.8240889
4.5392647
4.6060057
4.7627914
4.9107282
5.0861363
3.8119062
4.3726226
5.1237882
5.5298647
4.97149
3.7901382
3.5391793
3.6481803
2.6276017
1.8889953
6.8938331
8.2735001
8.4848037
9.8803545
6.9029914
6.5209156
6.7481928
7.2177999
6.2736608
5.4306936
5.4292163
5.8657518
6.7801282
7.4430542
7.7199685
7.5355802
6.9703666
6.2891793
5.7934481
5.7654091
6.0969126
6.1837219
6.2355198
6.5801991
5.056661
5.779098
6.7277221
7.2403019
6.6252354
4.4720143
2.7278214
2.6559431
6.551864
3.0911388
6.6746142
4.3514149
3.2007231
5.5316345
3.0719206
1.6939837
2.0210742
3.153467
5.1945561
6.5402288
7.2833192
8.0268398
7.7248179
7.203355
6.7291771
7.0520792
7.6247416
7.7295075
7.83908
8.3062585
6.7673406
7.3765822
8.2429036
8.6817854
7.9626639
5.4929445
2.4430711
1.7018795
4.9424688
3.866211
4.5011131
3.5597641
4.7472898
1.4368315
2.7392255
4.5871661
6.0452251
7.0170099
7.0733397
6.5912998
7.3186485
7.9791927
8.9355559
9.1821099
9.4264445
9.9194167
8.6743504
9.015798
9.6039442
9.8439233
8.8342982
6.9957774
3.7378569
3.7023182
2.9058749
1.9531537
1.3844389
3.5712551
3.1399752
1.5459065
4.2303224
5.2089793
5.4074059
5.1602814
6.2277581
10.026598
10.474434
10.81652
11.260736
10.54627
10.602404
10.841139
10.860077
10.268216
7.9054109
2.9747319
3.7158662
2.6358866
1.8756881
3.5749094
5.290747
1.7637395
2.9652281
4.5576413
6.3630547
9.5511992
11.511418
11.868355
12.251514
12.176292
12.0159
11.953847
11.737133
11.197251
8.8097158
3.0995603
3.5382384
1.3376672
8.1342371
6.663329
4.0712857
10.219717
11.999108
12.507306
12.879189
13.435293
13.130273
12.878894
12.647165
12.03422
5.5360223
3.4780842
3.4527951
4.3593842
3.3582176
8.8824769
5.9802407
6.0976613
10.136022
12.0453
12.722929
13.116623
14.29907
13.875586
13.413256
12.812556
11.684478
1.5559127
4.007793
6.4397456
5.0376438
7.0963128
8.5706716
3.8029243
7.3268246
9.7718773
11.902293
12.751978
13.237644
14.845259
14.273181
13.575964
12.428737
11.407564
6.5658064
6.2444402
9.0170993
8.6984751
4.1283302
7.6546181
8.2450214
6.3468297
10.188157
11.681544
12.626415
13.183557
15.111116
14.475277
13.659899
12.99675
11.183613
9.1776041
3.3301797
10.345627
11.063108
10.464898
2.2679714
7.5891636
6.2861022
5.8113057
9.7251281
11.259257
12.30941
12.959622
14.775709
14.15342
13.381623
12.756475
10.735333
7.8904375
10.246726
11.205922
11.517654
7.5590865
4.0385358
7.240414
4.850885
5.3334542
9.1593953
10.704561
11.855707
12.60831
13.731577
13.182397
12.56946
12.095712
9.8441484
8.0692139
1.8551084
9.0194945
10.751705
11.565731
11.751972
8.8561341
4.7762853
2.9797502
3.2172036
2.6128763
2.0346491
1.414245
1.3231763
1.9299159
2.6356174
3.1973626
3.4235595
2.8508194
2.045356
2.5358624
3.4295757
3.7192087
3.3518601
2.5091099
2.0870998
3.6961484
6.0218602
6.7533863
3.9330465
4.9200775
8.5639524
10.085753
11.321412
12.174382
12.059781
11.615286
11.219985
10.987279
10.801447
7.7549325
2.7936072
9.3467968
10.631993
11.177652
12.674392
6.8910888
3.3183093
4.0623541
5.0526585
3.5669643
2.0763129
1.4537613
1.1243108
1.1900365
2.2993119
2.5455092
2.8348846
2.7468354
2.3565601
4.6828744
5.4449738
3.7111278
1.1943874
2.720783
4.2867761
5.6736282
6.9520276
6.3367172
3.3601428
1.6745128
4.7046121
8.0084284
9.4710275
10.769343
11.711401
10.023157
9.6901814
9.5028406
9.5598055
9.6906449
7.2722346
3.7456506
7.7371037
9.0112609
10.047518
10.170709
10.891893
6.2000013
5.3187921
4.8038386
3.5466504
0.85654704
1.5181048
1.3027192
5.3999482
4.7319149
3.3679269
7.9059475
8.2449311
7.1368617
5.9301438
3.2160576
1.9862197
4.5981178
7.5328997
8.9330854
10.279925
11.313164
8.3916917
8.0626366
7.9771518
8.2670209
8.8079257
7.3222169
6.1791383
2.5208273
6.7736279
8.398906
9.5152061
9.5830472
4.9497276
3.7326131
6.6865658
1.6577269
1.6922598
1.8677184
2.3986521
3.3611914
3.8858512
3.7209088
4.0084617
3.8734427
3.1495595
2.565266
2.3344192
5.3197456
4.065891
2.8287494
4.3899885
7.9070857
8.1945035
7.7804115
7.8904293
5.7156639
3.3168127
2.3020238
4.6118192
7.1726417
8.5576186
9.9906522
11.15243
7.6006271
7.2992024
7.261443
7.5957686
8.2503587
7.6966754
7.1644925
3.3080235
4.6688885
6.3003985
7.21222
8.205132
8.5937945
7.4783251
5.5427342
2.8974557
4.1629697
5.5525723
6.6018109
7.3564079
7.5991276
6.9294581
5.2377862
3.5829511
3.0869721
4.3066969
3.7322505
3.3257063
5.5699636
7.4232269
7.4810139
7.4934749
6.4237212
4.4109943
3.2906836
2.3920387
4.6235462
6.9763655
8.4218079
9.9419628
11.16013
7.25017
6.9699629
6.9440717
7.239003
7.8239381
8.5696032
8.0248416
8.0676895
2.3538956
5.004322
6.5433801
7.2367169
5.9753856
5.1630244
3.3662757
2.7738202
3.2412715
0.98189033
2.3679407
3.8222866
4.7358523
5.6616679
6.2721658
6.2098184
5.0245929
2.935125
2.0875439
2.9761038
3.0651272
3.044442
3.4253272
6.7347942
6.9118668
6.2949234
5.2337891
5.4107771
3.5220869
3.4321451
5.5811809
6.8790488
8.4141733
9.931351
11.115911
7.1645701
6.9041726
6.8802349
7.1185466
7.5889312
8.1442062
8.1454879
7.84882
4.8916796
1.3039494
4.2431087
5.5761882
8.0551862
8.153149
4.3429699
2.2806846
3.2581122
4.5800603
5.0598387
5.4764045
5.6378615
5.4405789
4.7495126
3.6640479
2.903523
2.9419278
2.4489755
2.4036258
2.5519065
7.1016257
7.6808569
6.8301736
6.3049544
5.9833749
3.8597688
3.4101527
5.3663215
6.8022515
8.3820318
9.8453301
10.958028
7.2392838
6.9985991
6.9723781
7.1576229
7.5271224
7.9480614
7.9999655
7.1627958
6.2563118
3.2103329
5.2399369
6.4126557
7.6891096
6.1550504
3.0972052
1.558543
3.0953094
4.2445439
4.6071364
5.0613759
5.4460658
5.5868221
5.4036582
4.7827799
3.7851024
2.8945559
2.6325501
2.0998802
1.9265308
1.7395419
5.3121961
7.6727812
6.6562349
6.0067055
5.4116127
4.67374
3.7326014
1.672415
3.4214485
5.1484322
6.714731
8.291086
9.6615157
10.679607
7.4077761
7.1834285
7.1489938
7.2878706
7.582798
7.9174661
7.9688038
7.3606747
6.0419386
4.7003516
5.2857233
6.5617451
7.7528526
6.5117199
3.3479112
2.4787189
3.8816655
4.1538158
4.5351303
5.0245926
5.4229615
5.558313
5.3756456
4.7860372
3.8348011
2.9026278
2.4806463
1.9505226
1.7168129
0.88676299
2.350175
5.1263149
5.9220537
6.9561433
6.3925089
5.1480912
4.2778338
3.9120878
3.0639308
2.0928165
0.92121411
1.8373112
3.7911727
5.0605464
6.6353191
8.1453267
9.3942692
10.304254
7.6282968
7.4099237
7.3559666
7.4523064
7.6970993
7.9882686
8.0455678
7.5643274
6.3210511
4.9654429
5.9730629
7.2510106
7.8162093
6.7273985
3.6694383
2.4939349
3.8089149
4.059341
4.4652507
4.979177
5.3796674
5.507607
5.3314695
4.7686753
3.8538971
2.9165527
2.4545306
1.9807212
1.9540706
0.64416408
1.5992749
3.3280654
4.1955196
4.0753078
1.2560138
2.6147052
3.0022832
3.1468979
3.1582956
3.0791008
2.3468022
0.91425534
2.4846735
4.5199629
5.0533103
6.5522862
7.9652535
9.0853134
9.8865866
7.874774
7.6452801
7.5546619
7.6140553
7.8223305
8.1058465
8.2025051
7.798524
6.5314986
5.5162684
6.9579222
8.7389827
9.6096454
6.6586454
4.0907401
2.4902315
3.7074873
3.9417444
4.3611619
4.8839814
5.2799922
5.4023104
5.2409412
4.7101552
3.8352163
2.9075351
2.45064
2.0554001
2.3046167
1.2348044
1.1555904
1.4243812
1.911269
2.7938794
1.0723989
1.189641
2.7154735
4.9434116
3.637826
3.4470123
2.9063271
2.4381527
0.888513
4.6888762
5.8233318
5.2713147
6.5161281
7.8053858
8.7949576
9.4934313
8.1259619
7.8722693
7.7289773
7.733581
7.9056836
8.1920324
8.3425958
7.9630742
6.5462159
5.9347251
6.7339016
6.2285359
6.2635353
7.4088793
4.8483215
2.3708672
3.4859762
3.7293129
4.1664681
4.7096077
5.1250909
5.2534194
5.0986184
4.594031
3.7496816
2.8219253
2.3410301
2.0176354
2.4456033
1.9975712
1.368259
1.684699
1.4436973
1.2652626
2.6853648
3.7589546
3.240071
2.2630643
2.1567462
6.0222888
5.9073029
5.6436523
6.6157064
7.7253191
8.5741442
9.1751212
8.3520918
8.0669786
7.8604634
7.7847617
7.903898
8.1853361
8.3515582
7.8935645
6.3304991
5.0631204
5.1871185
3.3836388
4.6891269
4.6358388
3.597665
2.0472608
2.6646621
3.0476914
3.4827786
4.0569381
4.6610866
5.0756211
5.1005515
4.522147
3.3832178
2.2125887
1.602331
1.7164479
2.3208279
1.990537
1.3857595
1.7886274
1.0899916
1.3073926
2.6113586
6.7727359
6.2806843
6.1170844
6.8452427
7.7408951
8.4423905
8.9522732
8.5195124
8.1984524
7.9221858
7.7452549
7.7877111
8.0416674
8.1634213
7.5285871
5.8519422
4.6115358
3.7062981
3.3440408
3.6710234
3.4107006
2.591566
2.159768
2.1115695
1.9754976
1.8648786
1.9465763
2.0540571
2.5435915
3.0132983
3.6146349
4.3186225
4.9538005
5.3166224
4.9539067
3.6118017
2.1826379
1.4458346
1.3833043
2.0454424
2.0767421
1.9713391
1.7331051
0.78331522
2.7216136
7.5285831
6.6709124
6.6081538
7.1425386
7.8291302
8.3915483
8.8184459
8.594077
8.2370696
7.8912031
7.6024334
7.5389153
7.7292906
7.7318412
6.8611717
5.1358632
3.9879926
3.0555376
3.4932743
4.3133093
3.379339
2.836651
2.5493173
2.3294725
2.1028889
1.956372
1.9240321
2.0939544
2.3166369
2.2457651
2.4038919
2.5740514
2.642747
2.5776467
2.2422422
1.7078238
1.3191277
1.0115288
0.9732365
1.9138865
2.0559163
1.6633262
1.0093204
4.5687119
6.2224858
6.988892
7.0476284
7.4441946
7.9544883
8.4010942
8.7481326
8.5419212
8.163763
7.7474072
7.3387273
7.1437407
7.2288937
7.0460656
5.9461463
4.3132988
3.4541247
2.9907563
3.5038386
4.3099982
3.7236228
3.0296917
2.6791908
2.341453
2.1738685
2.1609361
2.0331494
2.0254808
1.5662598
0.78116174
0.56137761
0.80383746
0.5767296
0.50479728
0.52902058
0.25995286
0.26326738
0.35031755
1.0550582
2.645365
2.1311348
1.1811214
0.3982686
1.405219
5.0344025
6.5071396
7.2444612
7.4026028
7.7080813
8.0895805
8.4413292
8.7164543
8.335396
7.9528451
7.4694248
6.9345779
6.5904758
6.5341289
6.1357843
4.9080355
3.5891336
3.1734154
3.3592933
3.2037108
3.206047
3.0614099
2.571417
2.4168753
2.636588
3.3439763
3.1086738
2.7921901
2.5510932
1.0642031
0.49058901
0.3869359
0.4043644
0.36901447
0.40243811
0.31368778
0.38137654
0.66178489
0.92822256
2.4195887
2.844005
1.8353942
0.73703502
0.57794985
3.3323055
5.512531
6.7282653
7.4426515
7.6700088
7.9189343
8.2159793
8.5009055
8.7264839
7.9658219
7.5868937
7.0394305
6.3700565
5.872574
5.6567761
5.0811206
3.9298245
3.1069591
3.0605273
3.3288675
3.1958873
2.950902
2.4083128
1.8652796
1.6761619
1.8135782
2.0540962
2.5335172
2.9478658
3.0139195
2.0034945
1.0546353
0.69876695
0.81073979
1.0441567
1.2105945
1.4343183
1.8460454
2.1115043
2.0663755
2.0386956
1.9051884
1.0945895
0.35328871
2.6053823
4.674742
5.803369
6.9064545
7.5940785
7.8640618
8.0890206
8.3404224
8.5971609
8.8054976
7.4477622
7.0563293
6.4452815
5.630694
5.0002423
4.6485445
4.022967
3.1844085
2.8503809
3.0078415
3.2789874
3.3542329
4.0199974
1.5283929
0.9019973
0.52092642
0.42538757
0.38161087
0.37002311
0.5266546
0.73054288
0.77348792
0.54008665
0.26782116
0.23613619
0.46247418
0.50824186
0.54305168
0.68820462
0.90770032
1.6689767
1.6794649
1.3721814
0.75699333
0.31250725
0.95433717
3.7296548
5.0387308
6.0441882
7.0485505
7.6968008
7.9981052
8.2360986
8.4853238
8.7463045
8.9622011
6.7694089
6.3597533
5.6798004
4.7335537
4.0206489
3.6203912
3.1331538
2.7318786
2.7430242
2.9958173
3.2880894
3.0800154
1.6968139
0.63717342
1.1983016
1.0142442
0.70178247
0.67368497
0.65375871
0.22246039
3.0222193
4.6799101
5.3402862
6.2546166
7.1528781
7.7715997
8.1143709
8.3877967
8.6568121
8.9247573
9.1491504
5.9403124
5.5100605
4.7579816
3.7410016
3.0448861
2.7501765
2.5736648
2.582704
2.8131955
3.1492968
3.5506428
3.1959608
2.7061058
0.40781634
1.0501576
1.0648922
0.45064931
0.29951829
0.81735604
1.2485488
1.0663543
1.1335532
3.9627647
4.9889567
5.6039949
6.4295124
7.2407485
7.8468286
8.2321635
8.5395538
8.814841
9.0627116
9.2722624
4.9988565
4.5444442
3.7407858
2.7695662
2.2710384
2.2625409
2.4546182
2.760704
3.136994
3.573332
4.1129039
4.0028162
3.7617456
1.4159306
1.8171788
1.8858221
1.0567391
0.34363905
1.1074052
1.5482821
1.7302509
1.3227316
2.7999597
4.6357157
5.2390824
5.8289801
6.5649329
7.3189623
7.9217683
8.3326834
8.6425363
8.8819371
9.0711645
9.2334307
4.0150417
3.5300982
2.740219
2.0196415
1.9361795
2.273408
2.7369446
3.2090492
3.6691407
4.1495541
4.6819085
5.3940024
4.7318722
3.2047648
1.6622583
2.9322824
2.3374777
0.91858736
1.108012
1.711477
1.9538685
1.7156128
0.86948612
1.4262709
3.3530941
4.8197088
5.4241204
5.9901818
6.6514385
7.3717674
7.9645474
8.3617268
8.6208418
8.7751444
8.8716736
8.9669489
3.0744002
2.5705608
1.9401544
1.7206776
2.0610712
2.6398343
3.2408485
3.7747836
4.2495607
4.6968329
5.1259553
5.6315807
5.4007003
4.9805736
1.5323287
2.8495636
2.7764618
2.2607211
1.1548772
1.7321302
1.7616771
1.2470179
0.27242435
1.4027751
2.5020732
4.0242287
4.8988642
5.5237542
6.054068
6.6701808
7.3652781
7.9188935
8.2454548
8.398813
8.434689
8.4269408
8.4524459
2.2717433
1.8859332
1.616145
1.8222249
2.4300053
3.1378865
3.7805691
4.3043901
4.7335176
5.093793
5.4181098
5.8659142
5.8817604
5.3194018
2.4137047
2.3706008
1.5053122
0.50963444
0.33368656
0.99611236
1.3731512
1.0258625
0.69844008
3.9735687
3.6446061
4.0707098
4.8751357
5.5204904
6.0119206
6.5999376
7.2546909
7.7180096
7.9134442
7.9248713
7.8390439
7.7420811
7.7095834
1.7848812
1.6012273
1.6075801
2.1067508
2.8595645
3.6100057
4.2274123
4.6896951
5.0308431
5.290597
5.5745932
6.1034302
6.2014615
6.2341816
3.9186372
0.72615064
1.6996338
1.0261467
0.8067345
0.43981082
1.0246652
3.6483084
4.0121268
3.9332881
4.069755
4.7740562
5.410591
5.8663449
6.4221265
6.9952762
7.3042815
7.321485
7.1864284
7.0087948
6.8611516
6.7901293
1.5425666
1.5012828
1.7505908
2.4238967
3.2310583
3.9567029
4.5025669
4.874565
5.1189447
5.3157469
5.6102695
6.1843837
7.2784479
7.0215264
7.2727943
2.90994
1.462752
1.245376
0.95375002
3.9825738
4.1166073
4.1566652
4.0951088
4.6441416
5.2178116
5.630492
6.1270706
6.5573661
6.6493959
6.4679385
6.2193535
6.0137472
5.8772127
5.804881
1.3893613
1.4997448
1.9367475
2.6690223
3.4593953
4.1108611
4.5579776
4.8378848
5.0283576
5.2432813
5.6241068
6.2910651
7.3214245
8.7061866
8.4323653
8.5818231
4.2593117
2.500931
2.0979886
1.3302083
0.59879782
0.98548803
4.0326569
4.1772713
4.3253461
4.1893488
4.5492624
5.0013509
5.3315461
5.722851
5.9427886
5.7709945
5.4087661
5.1282168
4.9985989
4.9590268
4.9471982
1.2963047
1.5309442
2.0558534
2.7750949
3.4934851
4.0402976
4.3881964
4.6165093
4.8361978
5.1521318
5.6587084
6.4405306
7.4219483
8.5043092
9.285025
8.7751144
7.8681991
2.5213654
1.7497163
2.6884781
3.5278236
2.7468211
1.1424258
2.6722596
3.8510304
4.1809499
4.4384877
4.3693625
4.560269
4.8483503
5.0388874
5.2484247
5.1979526
4.7479834
4.2857355
4.1248894
4.2081076
4.3520635
4.4473096
1.2577808
1.5508175
2.0706878
2.7210625
3.3289938
3.7652173
4.0527876
4.3060254
4.6273016
5.0767727
5.7180879
6.5204182
7.3608328
8.0932486
8.4354646
8.0251085
7.0265824
4.0543285
2.884438
1.916961
4.4764513
5.260302
4.2845588
0.54022303
2.7171182
3.4880102
3.771961
4.0834839
4.4978809
4.6028135
4.7117486
4.8481465
4.8554089
4.7979671
4.420935
3.7266765
3.3454196
3.5041348
3.8919131
4.2880804
4.6518192
1.2795934
1.5604679
2.0028237
2.5356299
3.0155313
3.3691349
3.6681956
4.0163225
4.4556313
5.0163119
5.6993574
6.4187141
7.0434553
7.4087272
7.3442671
6.9601756
5.9874373
3.8531452
3.7078149
2.6496304
2.0541968
0.73697227
4.3852248
7.9554252
7.3299377
7.9631158
2.3891396
4.2469457
4.4855533
3.7801946
3.9474646
4.4660893
4.803173
4.9727978
5.0307692
4.870235
4.4931292
3.766676
2.8898901
2.8350086
3.3712734
3.9964999
4.6158067
5.0810246
1.400856
1.6102277
1.9127006
2.2893477
2.6452923
2.9672828
3.3342071
3.7800247
4.2927608
4.8890482
5.5131699
6.0828075
6.4587461
6.4850343
6.2123217
5.7500441
4.9369136
3.9868585
4.1083921
4.3543932
4.4750216
6.0484075
7.0448578
7.2824731
9.4488828
8.7268836
8.1362855
2.5580336
4.8029815
5.7348478
5.0513698
4.294326
4.1216754
4.4336981
4.8911671
5.2388135
5.3388154
5.1142987
4.4577628
3.3704703
2.4050586
2.7591678
3.4978764
4.1981506
4.9124622
5.3693537
1.6754231
1.750125
1.8679826
2.0645915
2.3123623
2.6381202
3.0655309
3.5550483
4.0811291
4.6222809
5.1343821
5.5255749
5.6582735
5.4954946
5.1645692
4.8973855
4.7298062
4.6684015
5.2509088
6.4680872
7.8245161
8.7769913
8.5211957
9.4673705
9.5115996
9.9026979
8.9083995
8.0949691
7.4637315
2.448649
5.9497016
6.4761035
5.8949481
5.3347543
4.84486
4.731303
5.0123812
5.4416805
5.6772842
5.5206875
4.7312908
3.3418766
2.3032079
2.8814882
3.6408633
4.3483943
5.0660862
5.488638
2.0210083
1.9626351
1.889755
1.9082561
2.0623038
2.3832711
2.8175208
3.288322
3.7675472
4.2152996
4.5938715
4.8051148
4.7697307
4.5317065
4.320364
4.5401693
4.954136
5.4066552
6.2749724
7.5477598
8.6147311
9.19501
9.3963126
9.1363061
8.8182018
8.4706393
8.0607693
7.2326887
6.6420269
6.2649542
1.6840047
5.4842592
7.0738123
6.9292554
6.5750761
6.2400418
5.8463771
5.478359
5.414748
5.6891511
6.0026431
5.9876183
5.2287083
3.6669616
2.4240231
3.0039764
3.7224608
4.4246567
5.0833074
5.4613133
2.3013332
2.1494306
1.9288726
1.8055057
1.8806132
2.1651351
2.5551241
2.9684329
3.3647336
3.7062411
3.9487156
4.0083914
3.8722151
3.6212976
3.7523024
4.4279917
5.2076544
5.9860683
7.0103361
8.155242
8.9127163
9.156709
9.0079064
8.5422226
7.9174402
7.1710475
6.3113775
5.2294469
3.8271473
3.425492
1.8501454
0.81942633
0.38485454
0.84430131
5.8471034
7.1530407
7.1850765
7.0042528
6.8291709
6.6206355
6.3471925
6.1027547
6.1122584
6.3534352
6.4590486
5.8395411
4.2248358
2.6132236
3.065994
3.7232059
4.3926803
4.9812376
5.3098837
2.408784
2.2090888
1.912322
1.7110302
1.7308901
1.9572519
2.2734778
2.6056797
2.9115646
3.1481612
3.265816
3.2245972
2.9888762
2.8743334
3.3660057
4.2944883
5.3007777
6.3161266
7.421821
8.4075017
8.9016977
8.886566
8.4998242
7.8375043
6.9922329
6.005783
4.9076224
3.726289
2.8132455
2.5589194
2.4507626
1.7596978
2.0181497
1.4427223
1.8773883
5.8856395
7.0520638
7.3038687
7.2501056
7.1644757
7.0781401
6.9587445
6.7797042
6.6605038
6.7680278
6.9269546
6.4969872
4.9526744
2.8754122
3.0410127
3.6348293
4.2597323
4.7787949
5.0579884
2.3734512
2.1485422
1.8292257
1.6085967
1.5991165
1.7659761
2.0039542
2.2492079
2.4686265
2.6113973
2.6368806
2.506896
2.2543709
2.3591498
3.0185565
4.0214386
5.1653972
6.3662343
7.5350477
8.388523
8.6919451
8.5082466
7.9763637
7.1806563
6.1916423
5.0769156
4.0401944
3.4473065
3.4236719
3.5585278
3.6116771
3.8656277
3.9796652
3.2340088
2.6043999
1.0251489
1.298564
2.1565418
5.6338253
6.9097134
7.3375135
7.3854068
7.3477405
7.3185309
7.2981374
7.2368815
7.1493858
7.1923587
7.3775685
7.1492425
5.8194251
3.4098445
2.9167956
3.4483308
4.0377086
4.5018999
4.7396736
2.369564
2.1132447
1.7767714
1.5521843
1.5277014
1.6519988
1.8311893
2.0070364
2.1423495
2.207313
2.1839685
2.0091972
1.824897
2.043877
2.6651143
3.6090792
4.8016285
6.1352493
7.3734193
8.1606645
8.3557486
8.0849719
7.466837
6.5398391
5.4248111
4.4074765
3.8923135
3.9470554
4.1760811
4.2672455
4.1830426
4.1386148
4.1370155
4.1444451
3.9909278
3.1628227
2.6947099
1.7651579
2.612309
3.528882
5.0385946
6.6384487
7.2903354
7.4482711
7.4459814
7.4361981
7.4592474
7.4789755
7.4739212
7.533799
7.7613884
7.7220447
6.7112978
4.4341606
2.7448561
3.169616
3.746537
4.1877696
4.4035536
2.5912391
2.2947396
1.9172393
1.6588517
1.6085833
1.7070737
1.8572074
1.9960353
2.0830903
2.0910808
2.038342
1.8827294
1.7434538
1.9003398
2.3547705
3.1344795
4.2665755
5.6555273
6.9619684
7.755797
7.9059677
7.5506827
6.7843033
5.7061285
4.6576913
4.1076499
4.1721316
4.5333297
4.8185923
4.8640849
4.6684772
4.4273836
4.2292442
4.0820712
3.8769134
3.7027628
3.0086435
2.799979
3.2754628
3.2134161
4.2119729
5.975727
6.9964216
7.3802367
7.4645578
7.4735695
7.5102809
7.5726701
7.6361402
7.7418277
8.0018945
8.1262393
7.4483067
5.5833432
3.2168268
2.8571272
3.4138546
3.874828
4.0983188
3.0972176
2.791396
2.3566154
2.0283842
1.9163026
1.9785896
2.1112234
2.2368116
2.3095751
2.287686
2.2247226
2.1170563
1.9721088
1.961488
2.1747776
2.7106228
3.6637721
4.9989276
6.3361658
7.1524515
7.2580301
6.7622232
5.8100315
4.7370898
4.1139783
4.150307
4.6197027
5.1732722
5.5385528
5.6025458
5.374333
5.0335267
4.6838445
4.4006584
4.0740158
3.7069167
3.3533329
3.0699493
2.9344405
2.9314787
3.4835015
4.9769365
6.2958455
7.0076634
7.3054651
7.4086897
7.4699123
7.5566686
7.6648584
7.8101135
8.0795043
8.3108901
7.895175
6.4608207
4.3237949
2.7751373
3.0636602
3.5852981
3.8408016
3.8432532
3.5529491
3.0873329
2.6768434
2.4754965
2.4703025
2.5651455
2.6716736
2.7326804
2.7071824
2.6370799
2.5874011
2.458259
2.2834479
2.2254197
2.454229
3.1187755
4.2730849
5.5701666
6.375618
6.3879694
5.6968982
4.6483838
3.9020343
3.8924391
4.3629025
5.1089689
5.8189267
6.2775663
6.3943291
6.1803336
5.8025809
5.3591155
4.9316967
4.4945007
4.0420335
3.6179779
3.2656972
3.0171753
2.9052082
3.0926817
4.0058597
5.2836987
6.2723589
6.8529207
7.1632585
7.3148785
7.4379263
7.5786369
7.749759
8.0068694
8.2676176
8.0140605
6.9260191
5.1619449
3.4683793
2.9347121
3.3576066
3.6572844
4.7619259
4.4880824
4.0100208
3.5513371
3.2610246
3.1677302
3.1978684
3.2638455
3.3046024
3.2804354
3.2309635
3.1888302
3.0694022
2.8498645
2.6096715
2.5182523
2.7833313
3.6089982
4.7803577
5.5182506
5.3743155
4.483725
3.5538957
3.4178813
3.8726711
4.6195563
5.5489105
6.3818932
6.9287409
7.1106734
6.9343876
6.5519759
6.0521169
5.4963199
4.9949731
4.535472
4.1390265
3.8364351
3.6240859
3.4185109
3.2213833
3.4594211
4.3112584
5.3367784
6.1500385
6.6948765
7.0150844
7.2103952
7.3892171
7.5793173
7.8125458
8.0321954
7.8564874
7.0104103
5.590501
4.1106377
3.2726476
3.3960452
3.6917712
5.7827216
5.5249093
5.0358934
4.5368537
4.1777659
3.9984379
3.9501329
3.958815
3.9739494
3.945323
3.8743776
3.7947723
3.6567557
3.4302356
3.1424805
2.8893352
2.8424961
3.2476961
4.1102928
4.7361998
4.4007295
3.3737679
2.8940133
3.2833161
3.9871587
4.8538021
5.883204
6.8001017
7.4178779
7.6637278
7.5341025
7.1625172
6.6365733
5.9809691
5.4966063
5.1181043
4.8330299
4.6571291
4.5785897
4.4910395
4.1608719
3.5997945
3.7774409
4.5533165
5.411697
6.1082146
6.5881477
6.8870856
7.1194855
7.331048
7.5393351
7.6935651
7.5319037
6.8466375
5.7096913
4.4870726
3.6934593
3.652911
3.8521636
6.8174192
6.5748967
6.0894491
5.5697912
5.1598231
4.9070775
4.7832971
4.7370887
4.6891476
4.594578
4.4630014
4.3383634
4.1944552
3.9750312
3.6580043
3.3427703
3.1417561
3.2713636
3.826234
4.2347454
3.78521
2.7342669
2.843107
3.4688068
4.1708234
5.0312076
6.0778564
7.0265563
7.686794
7.9832462
7.891096
7.497285
6.8974439
6.2933849
5.9569245
5.7482283
5.6300686
5.6136986
5.691268
5.7722478
5.6183575
5.0045632
4.1990339
4.368839
4.9737121
5.6242304
6.1549505
6.5349682
6.82398
7.060168
7.2473785
7.3378123
7.1630298
6.593926
5.6896786
4.726116
4.1020708
3.9907375
4.0600889
7.7578203
7.5504137
7.0974858
6.5808586
6.1446833
5.8419211
5.6459382
5.4982369
5.3495216
5.1737368
4.9744692
4.7965734
4.6285808
4.4282899
4.103827
3.7613487
3.5089315
3.5132888
3.8616448
4.0695995
3.6388614
3.107369
3.3030395
3.8244871
4.3577847
5.1525632
6.1211264
7.0284304
7.6871606
7.9968837
7.8948672
7.4877948
6.9625008
6.5409956
6.4076558
6.3939452
6.448406
6.5783954
6.7770639
6.9523493
6.9555967
6.6063852
5.8428906
5.1202471
5.1398478
5.4726961
5.8886053
6.2564931
6.5709631
6.8194999
6.9847753
7.024169
6.8387948
6.3634777
5.6502433
4.9163909
4.4466494
4.3044696
4.2456566
8.5540981
8.3952349
7.971844
7.4508404
6.9834166
6.6265224
6.3558421
6.1209813
5.8835338
5.6302683
5.3777742
5.1451612
4.9357094
4.7278174
4.4218112
4.0541479
3.8121619
3.7763243
4.003032
4.0848045
3.7899501
3.6683605
3.828155
4.1039207
4.5132185
5.1657464
5.9546664
6.7327373
7.3328483
7.5892152
7.4539196
7.1275848
6.8082216
6.6641753
6.71232
6.873169
7.0984066
7.3585641
7.6234306
7.8047061
7.8281907
7.6203102
7.1089081
6.3413693
5.7764126
5.6869349
5.8640624
6.1374695
6.4152636
6.6522747
6.7945443
6.8016029
6.6197802
6.2177489
5.6481089
5.0813591
4.7012362
4.5141276
4.3472201
9.11267
8.9915476
8.584851
8.0576007
7.5646954
7.1723023
6.8662032