/*--------------------------------*- C++ -*----------------------------------*\
  =========                 |
  \\      /  F ield         | OpenFOAM: The Open Source CFD Toolbox
   \\    /   O peration     | Website:  https://openfoam.org
    \\  /    A nd           | Version:  8
     \\/     M anipulation  |
\*---------------------------------------------------------------------------*/
FoamFile
{
    version     2.0;
    format      ascii;
    class       volScalarField;
    location    "3600/air";
    object      nut;
}
// * * * * * * * * * * * * * * * * * * * * * * * * * * * * * * * * * * * * * //

dimensions      [0 2 -1 0 0 0 0];

internalField   nonuniform List<scalar> 
167754
(
2.901433
2.8976076
2.7767446
2.5550714
2.2740243
2.0232657
1.931272
2.0853851
2.4275338
2.8327122
3.2394956
3.6491876
4.0344076
4.249132
4.1079318
3.6231147
3.0175179
2.5131993
2.1823013
2.0455506
2.1124277
2.3817066
2.9002203
3.7448699
4.5773597
3.8402055
2.858191
2.136117
1.4932023
0.99663292
0.90235134
1.1576586
1.4931619
1.8628908
2.0681569
1.6379195
1.18768
0.90599772
0.7401976
0.64649917
0.59586988
0.57676887
0.59506605
0.66816189
0.81118947
1.0265272
1.307193
1.6424549
2.0356066
2.4641949
2.8988343
3.2945213
3.6205389
3.8600424
4.0175097
4.0930992
4.1347429
4.1735953
4.2073934
3.9210534
3.8926956
3.7243556
3.4531651
3.1408825
2.8919676
2.8141752
2.940708
3.2178396
3.5855239
4.0071197
4.4408409
4.8346232
5.0844918
4.9245645
4.4658365
4.0381924
3.6385606
3.3507283
3.2065716
3.292281
3.646424
4.2801417
5.1647993
6.0417173
5.5712603
3.9933478
2.8866958
2.1386036
1.6306907
1.6100671
2.0174313
2.7751093
3.7888405
3.7210126
2.9331711
2.3092463
1.910166
1.6940172
1.60009
1.5766462
1.5994327
1.6776663
1.834543
2.0611531
2.3169185
2.5821821
2.8556318
3.1330384
3.4200436
3.7607553
4.0900502
4.3652299
4.5917019
4.7896114
4.9590632
5.1167292
5.2680077
5.3619543
4.4510684
4.3772579
4.1420257
3.8067314
3.4627177
3.2227606
3.1545035
3.2473942
3.4601456
3.7606592
4.089649
4.4055949
4.6442139
4.8082007
4.822597
4.5029936
4.2622033
4.1292255
3.9811815
3.7996507
3.7067614
3.7902892
4.0769696
4.4199323
5.1316176
5.8716296
4.3147234
3.1332238
2.4865624
2.1014843
2.1045403
2.5707281
3.7401314
4.560536
3.7714162
3.2607628
2.8310855
2.4958123
2.3005997
2.2215891
2.2145799
2.2578852
2.3695654
2.5836223
2.8713943
3.1373462
3.3397944
3.4974661
3.6223303
3.7252025
3.9070521
4.1370013
4.3871886
4.6410916
4.9257439
5.233474
5.5220986
5.7832984
5.9345363
4.6592414
4.5329688
4.2262475
3.8316417
3.4725532
3.2622092
3.2203059
3.2974676
3.4638093
3.700563
3.9749836
4.2064576
4.2398532
4.1720306
4.3862792
4.5148659
4.567989
4.712155
4.6600507
4.3275561
1.8628255
1.8647922
3.9768588
3.801505
4.0081651
5.0879066
4.6314613
3.4597885
3.0196226
2.6105878
2.5096612
3.1653582
4.0154119
3.4931689
3.3329055
3.1183084
2.9056552
2.733873
2.6527306
2.598467
2.5819235
2.6064047
2.7037337
2.91741
3.2274996
3.5154165
3.6909297
3.7709157
3.7902292
3.7650715
3.8005871
3.9037626
4.092414
4.3659061
4.7107792
5.1352867
5.5515111
5.9180891
6.1230774
4.6725393
4.5056473
4.1332041
3.6960192
3.3413548
3.1754547
3.1742831
3.2623231
3.4115348
3.6850414
4.0865694
4.4445175
4.5439181
4.3088755
4.0639082
4.4544066
4.8688719
5.3173897
2.276049
2.1858799
2.0279061
1.9328306
2.0728397
3.2285163
1.6666895
3.8046153
5.266556
4.4683102
4.0886542
3.3335923
3.0650828
3.6122726
2.9775907
3.3365919
3.5415967
3.5026655
3.2110709
2.9778406
2.8776344
2.8402826
2.8146433
2.8112652
2.8700016
3.0382781
3.3192596
3.6142835
3.8006976
3.8574656
3.8267766
3.7345622
3.6620242
3.6402699
3.7240085
3.9705367
4.3726897
4.8764542
5.3833173
5.8039435
6.0385066
4.5864321
4.3900284
4.0024412
3.5345948
3.1837375
3.0568577
3.1034673
3.214768
3.4538719
3.8980513
4.468814
4.9272415
5.055967
4.8318533
4.3531716
4.1273934
4.6389514
2.5466309
2.3688031
2.1446134
0.95316466
0.42147389
1.8276721
1.4867695
1.3774889
2.0606468
2.3088167
2.0320254
5.7389317
4.2779289
3.737746
2.5982612
3.0539383
3.5152809
3.7997883
3.9016863
3.8143616
3.4487399
3.1464966
3.0376241
2.9890155
2.9618971
2.9761918
3.0764439
3.2869467
3.5519161
3.7548419
3.8333044
3.8052254
3.6996197
3.5669759
3.454355
3.4296615
3.6019088
4.0184444
4.5792767
5.1095948
5.5632046
5.8259792
4.4823056
4.2976025
3.9057676
3.4366788
3.0657743
2.9545737
3.0407597
3.2375913
3.6913827
4.4368434
4.9553797
5.3427509
5.490706
5.3297924
4.891127
4.4076878
2.5980726
2.1603742
1.0269848
0.45170795
0.8505797
1.8726718
1.2019976
0.56445817
0.74850523
1.9851997
2.595747
2.8661793
2.1202662
1.7474648
2.8608861
3.3033926
3.7061301
3.9919912
4.1482049
4.1581854
4.0187448
3.5896945
3.2811526
3.1621352
3.1054579
3.0779275
3.107034
3.2272049
3.4251712
3.6214364
3.7359506
3.7464856
3.6661239
3.5180262
3.3570442
3.257048
3.3419255
3.7288248
4.3216932
4.904414
5.3683936
5.6100489
4.4712567
4.3130211
3.9186924
3.4183444
3.0178856
2.8824534
3.0138529
3.4376165
4.2566147
2.1918235
5.4704318
5.689846
5.8083978
5.7090236
5.3559795
2.0585482
2.6770229
0.68532
1.9626038
1.9714514
1.0112153
0.89866898
1.1705155
2.1560715
1.8109126
1.7905998
1.8038485
3.7608489
4.1351725
4.3683982
4.4147297
4.3424972
4.1546743
3.6452483
3.3193611
3.2164252
3.1766613
3.1499005
3.1798023
3.3015527
3.4665591
3.6042189
3.6635307
3.627546
3.4953624
3.3177233
3.1780684
3.1960526
3.5235038
4.1193467
4.7284708
5.1806101
5.4128174
4.5623522
4.441946
4.0355267
3.4697924
3.001316
2.8436894
3.0896222
3.8449429
1.9683772
2.3218103
2.6509759
2.5575637
5.9629816
5.9410972
5.6393851
2.24251
1.0413984
2.1777341
1.8371948
0.42274968
0.70804384
0.99343657
1.6735469
1.670665
1.9822258
2.1706552
4.5058629
4.5481682
4.5552
4.0086605
3.4176746
3.2086072
3.1788897
3.1595848
3.1408558
3.1974586
3.3333144
3.4846116
3.5844478
3.5913545
3.4862773
3.3075943
3.1475972
3.1224797
3.381065
3.9437363
4.5277648
4.9533943
5.1716138
4.6343018
4.504993
4.0827982
3.5217826
3.0157233
2.8439276
3.258924
4.3234242
2.1057241
0.97323634
0.82578594
2.2697615
2.4648358
2.7014281
2.6990593
2.273997
0.7485927
0.91585656
2.2034359
1.1758887
0.73490486
1.2160422
2.001574
2.1941241
2.3608237
2.4948754
4.1245576
3.9910786
3.7556386
3.5304203
3.3649434
3.217704
3.1636457
3.237422
3.391149
3.5292914
3.5737444
3.4963921
3.3321695
3.177806
3.1461095
3.319235
3.6708551
4.1124801
4.4974953
4.552223
4.1472441
3.9745086
3.7671458
3.5620964
3.163927
3.0067642
3.4852138
1.8195374
1.9528568
0.48230495
0.8701168
2.2606011
2.3805337
1.9945216
1.9120276
2.0912842
0.60700111
1.0713025
1.3884828
2.2086869
2.1667201
2.3803016
4.3782
4.304936
2.0015299
3.5250229
3.2627085
3.2203507
3.3362314
3.5038902
3.5944211
3.5629887
3.4580047
3.3726526
3.4039365
3.4310967
3.4995901
3.768655
4.0405799
3.9547156
3.6473164
3.7710328
3.8985946
3.9675739
3.7385001
3.3101534
1.6455261
1.6466817
0.71916023
0.43466913
0.92916284
1.1086468
2.0033689
1.1769497
1.0518408
1.2062399
2.2897418
2.1738378
2.1976139
1.9576328
1.8098183
1.8041268
3.3915119
3.6241878
3.7853459
3.8316417
3.8477966
3.8778931
3.9247667
3.6657358
3.7389502
3.9989698
4.2141724
4.2128672
3.7798858
3.9692284
4.1488457
4.2270871
3.918927
3.0128613
1.5961045
1.3129255
0.90643981
0.85418673
1.9200081
0.76387382
0.91300809
1.7919928
0.52950206
0.73252588
0.78033422
1.5401869
1.9200392
2.046033
2.0976717
4.4767457
4.5632082
4.569933
4.2955998
3.8316469
4.0516257
4.3665185
4.6144365
4.6850883
4.0976076
4.2471425
4.3832479
4.4275569
4.0917505
1.9786902
1.3689896
0.5165537
0.77328238
1.7633926
1.0125304
2.1222201
0.91560806
0.22433963
0.71779139
2.0565453
2.1683503
2.2510101
2.2261467
2.281592
4.2007466
3.885083
4.3457487
4.7536272
5.058721
5.1460862
4.4495277
4.5366414
4.59314
4.5945857
4.2051189
2.232226
0.88340639
1.5109864
1.4090331
0.83527095
0.27070674
1.7183624
0.71188197
0.54971554
0.89761987
1.7817674
1.9385654
2.5065034
1.7574768
4.5782737
5.1321751
5.457518
5.5279146
4.7822194
4.8204321
4.7980753
4.7317246
2.4441556
2.3972594
0.77148135
0.66183274
1.2223683
0.57047832
0.71257456
1.7031275
0.26192711
0.53877265
0.88508656
1.6141478
2.2799587
5.443789
5.7464846
5.8087772
5.0774684
5.0857613
5.0185507
4.9031256
2.5648754
1.2703073
1.2890187
1.4666633
0.38408118
2.0625058
1.0722218
0.62894354
2.353393
5.5607596
5.9011789
6.0007351
5.339544
5.3193935
5.2129795
2.6236461
2.5724333
1.0073698
0.71017547
1.5158461
1.3718816
0.39358819
2.2587582
0.99289625
0.86961438
2.2998571
5.5499088
5.9535279
6.1020147
5.5913755
5.5297609
5.3692399
2.6137357
2.3658591
0.25515193
1.5709468
1.8483574
0.80050349
0.95978345
2.3612334
0.46372847
0.96331542
2.2542111
5.5510908
6.0244611
6.2694715
5.8843947
5.7556486
5.5301578
2.5901883
2.4124577
0.90271397
1.7785134
2.1502768
2.0228445
0.46287783
2.0618578
1.2761713
1.6026976
4.9216835
5.6673209
6.1910843
6.5136418
6.2464432
6.0681085
5.8108351
5.6438583
2.543654
1.1354296
0.78542357
2.3055598
2.3958201
1.2032537
0.26834875
2.3197882
1.0860716
1.5662261
5.0291619
5.8151644
6.4151512
6.8333265
6.5913153
6.381509
6.1307586
5.9946551
2.6895099
2.204845
2.3727741
2.4709657
2.4342719
0.86921022
0.83743551
2.5239852
1.0329398
1.5714056
5.1810936
6.021602
6.7143052
7.2457097
6.8515713
6.6247826
6.4127605
6.3424667
2.8185121
2.5885608
0.2394078
1.0340451
2.5528314
2.4288197
2.3929842
2.2227295
1.6705283
1.4126508
1.5870603
1.5102164
1.4136717
1.1883129
1.0329323
1.2091219
1.390854
1.4119203
1.2768517
1.1776607
1.2050166
1.2374052
1.2346121
1.2629214
1.2398253
1.111033
1.2964952
2.0451872
2.4447481
2.71826
0.98165823
1.612019
5.4034424
6.2920023
7.0859768
7.7235327
6.9581838
6.73777
6.5815062
6.5982928
6.7459438
2.9909306
0.79077505
2.6269321
2.453388
2.3150903
1.305353
2.2120739
0.85224549
0.9251296
1.0369964
0.910694
0.78162934
0.66329323
0.54144696
0.54860112
0.75451301
0.79359156
0.8158748
0.77590758
0.774132
1.0455234
1.0609908
0.91027819
0.58957107
0.82559163
0.96249804
1.2059152
2.5386204
2.541616
0.8957506
0.32465301
1.7268072
5.6913442
6.608397
7.459902
8.0826407
6.8005236
6.6406368
6.5413017
6.6089903
6.7259299
3.2775685
1.2647005
0.99014196
2.4592933
2.3408368
2.3793318
1.3744432
1.202422
1.6137155
1.5843647
0.81601535
0.47603527
0.93615166
0.50256262
0.95919719
0.86674717
0.99482962
2.3245381
2.4625262
2.4361381
2.2470682
0.82407513
0.47017333
1.8782259
5.9892428
6.8708782
7.591213
7.9591482
6.2413066
6.1594051
6.068917
6.117802
6.1867408
2.9869232
2.6058752
0.33365636
2.5251769
2.3053529
2.2846473
2.3810361
1.0647528
0.58664543
0.8708763
0.58805325
0.61589815
0.45976639
0.75695136
0.85760799
0.95973451
0.94023681
0.98391743
0.98965972
0.89072742
0.78068509
0.73013195
1.837971
1.2793387
0.66615495
0.88400274
2.2132657
2.3167793
2.3140113
4.8058138
1.9346545
0.78134858
0.62337682
2.0489001
6.182359
6.8666615
7.2895565
7.4550393
5.5599616
5.5390415
5.4430293
5.4528738
5.5483017
2.6226187
2.4121356
0.57683587
2.0372424
2.4214732
1.3228265
1.3418643
1.3398404
1.0785055
1.9041187
0.70711139
1.4392945
1.6850987
1.8541029
1.9798549
1.9991081
1.8674026
1.5656149
1.2485111
1.1387034
1.0773563
1.3642849
0.69730227
0.96777322
2.0622166
4.2138773
4.1858387
1.9408441
1.6467687
0.64323121
0.70197366
2.1104975
6.1705934
6.5731833
6.8223019
6.9305762
4.9647212
4.9583325
4.8664567
4.8649009
4.9848062
5.1537582
2.3295052
1.1208884
0.70942545
1.8964752
2.1293558
1.3394251
1.2889952
1.0833759
0.84251772
0.68816607
0.65826681
0.45396756
0.55843268
1.287205
1.4860203
1.6659356
1.7696243
1.794626
1.7190098
1.517704
1.4649745
2.0190836
1.8562626
1.44708
0.78741928
1.9266377
1.8527322
1.71967
1.6569142
2.0027502
0.59473153
1.7720416
5.3829945
5.9529221
6.171616
6.335747
6.4194352
4.5768852
4.5815294
4.4991336
4.4768562
4.5422167
4.6338953
4.4628413
2.0403989
1.4001592
0.5349734
1.5084316
1.6796193
1.1723486
1.4063692
1.2218339
0.88585461
1.0784576
2.5308939
2.7575752
2.9632663
3.1297367
3.2612466
3.3613449
3.513569
3.6428291
4.038797
1.9900899
1.5069868
0.7682639
1.9623061
1.8714103
1.7731957
1.7264277
1.7386391
0.53974515
1.9436294
5.3177166
5.5894886
5.7057606
5.8451915
5.9265281
4.3513095
4.3663381
4.2895108
4.2409336
4.2478945
4.2537958
4.1041195
3.5278095
1.5741304
1.0345836
2.6237211
3.0620407
1.9001699
1.9688329
1.0009099
0.37393403
1.0946428
2.4525294
2.6208751
2.8018389
2.9766033
3.1275126
3.2481101
3.314495
3.34481
3.3279935
3.6989302
1.7781087
1.4663126
0.64327147
1.9535894
1.2404592
1.8541989
1.5990926
1.5077932
1.5821849
0.65992069
0.291005
1.8287286
4.8040107
5.0906171
5.2254399
5.3683474
5.4564845
4.2332829
4.2521088
4.1729518
4.0983397
4.0601979
4.0129585
3.8479867
3.4055756
2.7451309
2.2778327
1.444632
1.6834709
1.7907117
1.7987778
0.93226063
0.98556122
2.349665
2.5053117
2.6744322
2.8645031
3.039463
3.1743185
3.264274
3.2856015
3.2406743
3.1566205
3.3330187
1.4902289
1.3167107
0.5445465
0.79856056
1.0734258
1.1177459
1.0619468
0.78170872
0.77444315
1.8336822
1.9820702
2.0540816
0.63620625
0.21658828
0.4880842
1.6326883
4.2346416
4.6309387
4.7829164
4.9236514
5.0165555
4.1917885
4.2012855
4.1082297
4.0091365
3.940456
3.8629871
3.6876864
3.3056539
2.7312855
1.2655114
1.4206648
1.0476544
1.7511902
1.69353
0.84539239
1.0601632
2.4068964
2.5447876
2.7153612
2.9116584
3.0793897
3.1947701
3.2606207
3.2553911
3.1862081
3.1063755
3.2461611
1.4545965
1.3562825
0.4423401
0.76370294
1.7501095
1.6797522
0.76738998
0.17631858
0.63443581
0.68273894
1.8042776
1.461355
1.1999975
0.52142476
0.17123522
0.60678697
1.5761225
3.7066113
4.2120258
4.3783043
4.5180377
4.6146654
4.2104431
4.1931915
4.0728693
3.9535836
3.8615156
3.7699691
3.595645
3.2543694
2.7111137
1.2920632
1.5219095
1.3031919
1.2788585
1.7144265
0.81315075
1.1377968
2.5006588
2.5933567
2.7473328
2.934088
3.0842699
3.1754196
3.2191134
3.1963775
3.1199854
3.0580111
3.2457128
1.5132337
1.5481019
0.58797965
0.4932439
0.71682004
0.76479013
1.3881191
0.50252222
0.1784842
0.53577947
0.79790499
1.2842569
1.2150626
1.0841609
0.5352916
0.20094703
0.8453903
1.6109598
3.1389907
3.7496883
4.0023493
4.1603598
4.2639846
4.2761886
4.2168503
4.0595166
3.9126113
3.8018455
3.7034226
3.5425579
3.2322386
2.6591356
1.3647756
1.6130225
1.2411216
1.7485438
1.1739891
0.84430684
1.1807052
2.5621401
2.6128179
2.7454232
2.9203303
3.0533713
3.1163195
3.1293086
3.0822546
2.9868204
2.9007493
3.0551203
1.5151704
1.6098513
0.65102425
0.55043939
0.74165271
1.2170629
0.48820727
0.19102632
0.57442198
0.63911867
0.90272213
0.78460468
1.5168433
2.7412988
2.914319
3.4090902
3.6982909
3.8732559
3.982301
4.3706377
4.2618996
4.0591441
3.8758245
3.7457061
3.6429967
3.4889657
3.1711896
2.5737675
2.156839
1.4820418
0.83643035
0.99937644
1.782581
0.83628213
1.1250134
1.2829724
1.3224046
1.3731719
1.4581585
1.5414921
1.591396
1.604647
1.5598239
1.4445798
1.2937164
1.2128433
1.3128148
1.5417439
0.64745079
0.5558768
0.74027045
1.0228603
0.16147949
0.45540537
1.5469769
2.7834468
2.8643177
3.2224697
3.4929097
3.6703626
3.7814904
4.4718635
4.3124626
4.0609713
3.8341483
3.6828415
3.5755236
3.4146023
3.0615646
2.4715786
2.1232155
1.295946
1.4774199
0.91401922
1.5045073
1.3957389
1.2382093
1.3446178
1.3148747
1.1899419
1.1595051
0.69548889
0.93665115
0.9790826
1.0329479
1.083581
1.1087755
1.1223371
1.1004697
0.98810878
0.85026215
0.75928429
0.73226637
1.4249645
0.71376921
0.75962432
1.4519917
0.43156789
0.72672621
1.7376967
2.9217332
2.9198536
3.1554839
3.3815976
3.5511682
3.6640402
4.5594234
4.3531849
4.0548759
3.782798
3.6046649
3.4877818
3.302565
2.9061783
2.3433212
2.0639787
1.2011138
1.4808468
0.93800792
0.7937731
0.825455
1.4596742
1.4846761
1.4577422
1.2611293
1.1139923
0.58909593
0.80706385
0.8469801
0.91593158
0.99264667
1.0434278
1.0406103
0.99423684
0.86969796
0.73342469
0.62093888
0.59020258
1.4297091
0.80490387
0.75621441
0.57494801
1.6176876
3.0058422
3.0469024
3.0085478
3.157953
3.3435327
3.5078847
3.6262424
4.6148451
4.3759712
4.0315932
3.7136401
3.5025088
3.3673265
3.1436135
2.7100941
2.1980678
2.0244261
1.2136887
1.4831369
0.95315189
0.89466074
0.76275716
1.4678798
1.4390662
1.5521352
1.4605301
1.1583204
0.61134632
0.4110372
0.31130162
0.27452922
0.38751707
0.56496107
0.56839222
0.34189773
0.23469063
0.21367384
0.24759934
0.54127501
1.9821709
1.6970617
1.2297486
0.35012893
0.66744388
1.6592582
3.1212083
3.1352515
3.092023
3.195489
3.3602019
3.5301412
3.6645959
4.6234381
4.3656238
3.9809666
3.6170883
3.3690131
3.2050732
2.9349353
2.4854791
2.0734089
2.0423652
2.2980553
1.3520474
1.4020165
1.3736507
0.75217035
0.71243853
1.3785594
1.8344837
1.1226815
0.90278027
0.68968635
0.45391505
0.29070647
0.2578502
0.59370889
0.54683676
0.5546139
0.28785695
0.27863127
0.31202701
0.35849034
1.6548657
0.99835102
1.4637035
0.3869436
0.28555769
1.411707
2.940252
3.1636266
3.1823536
3.16011
3.2519938
3.4190996
3.6135751
3.7818577
4.5857459
4.3142342
3.8947734
3.4841229
3.1972942
2.9954845
2.6825326
2.2611201
2.0039691
2.0739068
2.2505885
1.2302038
1.1242054
1.0684885
0.96115118
1.0044564
1.2132167
1.6215349
2.0468902
2.0229305
1.7554514
1.3255911
0.98870292
0.73331189
0.69112521
0.76369212
0.8418927
0.96947597
1.0866977
1.1016477
1.1348647
1.2519283
1.2458685
0.88234278
0.17782302
1.1488583
2.6892336
2.9935623
3.1709791
3.2078181
3.2201936
3.3274909
3.5188095
3.7605007
3.9836189
4.5088116
4.2173247
3.7676685
3.3052209
2.9829792
2.7399915
2.4130295
2.0900597
2.0006442
2.1186267
2.2602553
1.2378439
0.73078189
0.35241732
0.29151076
0.2038073
0.21145777
0.28053532
0.32599458
0.27132437
0.25539996
0.24473153
0.21711428
0.167303
0.19394141
0.18252782
0.17815209
0.19106183
0.23283498
0.29939809
0.43576119
1.0965703
0.97258452
0.76366905
0.24136763
0.41181856
1.3208797
2.763057
3.0014443
3.1639203
3.2244502
3.2792428
3.4259758
3.6634133
3.9699095
4.2662999
4.3843678
4.074386
3.5915509
3.0826661
2.7282125
2.4559691
2.1697779
1.9973784
2.0264168
2.1701127
2.3923218
1.3206639
0.62847502
0.39364462
1.0846687
0.96833335
0.82927841
0.91210036
0.95043418
0.1899506
1.1264435
2.5794993
2.7999613
3.0011984
3.1538195
3.2432591
3.3517241
3.5530829
3.8506428
4.2267979
4.6070355
4.2061625
3.8813333
3.3611346
2.8210248
2.4540808
2.192302
2.0118871
1.9872507
2.0795975
2.2606655
2.5745772
1.4119264
1.5307208
0.18738196
1.1997342
1.1051236
0.34083106
0.33249088
0.94877724
1.1519868
0.49954021
0.46104794
1.2862011
2.6577714
2.8252713
3.0023707
3.1517424
3.2787778
3.4457664
3.7055271
4.0613926
4.5003172
4.9646229
3.9673272
3.6303137
3.0792308
2.5499545
2.2335411
2.0490319
2.0070547
2.0842982
2.2265227
2.4768001
2.906228
1.6317326
1.822695
0.50921807
1.5259542
1.418926
0.46232271
0.16893209
0.43187595
0.96731089
1.0388094
0.46734879
1.0829764
2.4920714
2.7098759
2.8486276
3.006842
3.1653699
3.3348911
3.5567687
3.8658301
4.2647469
4.7508964
5.2902127
3.6620146
3.3067711
2.7666149
2.3798407
2.1916592
2.1064589
2.1602946
2.2895371
2.481562
2.7803048
3.230159
3.8403436
2.0228422
0.76689934
0.51859593
1.663719
1.2663393
0.32632058
0.37936707
0.84450181
0.9289258
0.86770781
0.38186557
0.48113781
1.2038675
2.5711771
2.7422395
2.8669561
3.0143825
3.192737
3.4036353
3.6680339
4.0068182
4.4258059
4.9371493
5.5394545
3.2819601
2.8987913
2.5301047
2.4431627
2.3216963
2.2946683
2.3867931
2.544838
2.7701523
3.0790491
3.4806324
4.0040688
2.1665811
0.94656057
0.25657752
1.4705815
1.4114517
0.57770431
0.44354854
0.87593603
0.86587346
0.43132495
0.17653783
0.28013879
1.0621527
2.3154809
2.5992996
2.7504222
2.8689093
3.0194809
3.2239164
3.4681415
3.7555002
4.0996103
4.5150576
5.0302597
5.6792571
2.841871
2.6043593
2.5457631
2.6072135
2.4790476
2.4901914
2.6080315
2.7881241
3.0237764
3.3135497
3.662701
4.1325571
2.2585346
1.9502385
1.1806153
1.2691971
0.96540223
0.20275073
0.18718548
0.4672062
0.81679161
0.72191624
0.43944125
1.1464327
2.1645489
2.3201051
2.5791227
2.7304248
2.8482348
3.0138726
3.2440965
3.5069972
3.7941059
4.1205812
4.5140725
5.0168925
5.6867723
2.5896798
2.4231137
2.5420551
2.690205
2.5878086
2.6431349
2.7881476
2.9798792
3.2053297
3.460694
3.7741042
4.2357375
2.293703
2.3699765
0.80088273
0.43792006
1.0082253
0.91429644
0.37409692
0.2986873
0.80480471
1.1315463
2.6116015
2.2398718
2.2839978
2.5181242
2.6826618
2.8033269
2.9891062
3.237351
3.4996921
3.7640569
4.0554707
4.4165573
4.8989799
5.5506616
2.3171134
2.2356259
2.6307657
2.6844373
2.6482628
2.7481552
2.9131508
3.1054285
3.311717
3.5411718
3.8469103
4.3293727
4.9978738
2.5407839
2.0996862
0.48272353
1.1122179
0.89111009
0.72753381
1.2177108
2.7085002
2.3203474
2.2665395
2.448692
2.6143179
2.7365842
2.9385907
3.1907887
3.4320072
3.6557581
3.9025374
4.2307095
4.6954388
5.2950275
2.0750355
2.2082744
2.6920876
2.644042
2.6703909
2.8008007
2.973383
3.160805
3.3611641
3.6041396
3.9652463
4.5314891
5.2768615
5.8061396
2.7795187
2.3057614
0.93580602
1.2036481
1.2128027
0.98417664
0.32065966
0.46596326
1.3229503
2.8159532
2.4472709
2.2957238
2.3955092
2.5386183
2.6527881
2.859223
3.098469
3.301207
3.4740381
3.6779291
3.9896436
4.4545508
4.995287
1.9964634
2.293534
2.6318252
2.5814033
2.6496742
2.7951337
2.9702142
3.1637094
3.3909926
3.696074
4.1457062
4.7866873
5.497498
6.0034772
6.1157336
5.3997309
2.0190311
1.2938521
0.2900146
0.61881675
1.4360022
1.4300659
0.54314273
1.1532513
2.9269438
2.9136679
2.6003098
2.3859847
2.3818504
2.470217
2.5630047
2.7555186
2.9663621
3.1210535
3.2433267
3.4313624
3.7801457
4.2772425
4.7620123
2.0931597
2.4073107
2.5236338
2.4943395
2.5829441
2.7372895
2.9255439
3.1488651
3.432354
3.8125244
4.3333301
4.9531522
5.5575377
6.050492
5.9274119
5.1406541
3.9178945
1.5826962
1.44022
0.55408115
1.815448
2.0284986
1.8546853
0.46645911
0.65054438
1.4580236
3.089647
2.9698273
2.7545738
2.5360321
2.4299736
2.4396212
2.4921876
2.6485562
2.8154933
2.9182044
3.0131879
3.2692888
3.730131
4.2914351
4.7922249
2.3300159
2.4996378
2.4166502
2.3884746
2.4824469
2.6538592
2.877003
3.1488282
3.4866014
3.918256
4.4308085
4.9520498
5.3718125
5.4513266
5.0201109
4.3445966
3.468364
2.7173954
2.5469026
1.4047067
1.192203
0.21373214
2.0991544
5.4472338
2.5684609
1.2318622
0.35882032
1.5465545
3.5800693
3.0418569
2.9196249
2.8573818
2.7064437
2.5494041
2.4775199
2.4686195
2.5672008
2.6926013
2.7214094
2.8600481
3.2791604
3.8609978
4.5027579
4.9916204
2.6143301
2.5389961
2.3407327
2.2818627
2.3764266
2.5810924
2.8477934
3.1552281
3.5157958
3.9435062
4.3812913
4.7256029
4.8137957
4.5754125
4.1133408
3.5206709
2.899399
2.5326796
2.6319809
2.9504516
1.8746271
1.8010986
0.95608715
2.4175337
6.2100405
3.0231763
2.5666906
0.5583438
1.4726651
4.2012699
3.7553157
3.1014975
2.8936887
2.8623879
2.8139869
2.6983941
2.5833797
2.5188889
2.5498425
2.6294837
2.5672303
2.8411438
3.3954658
4.0064108
4.6730031
5.1116989
2.7792859
2.5891364
2.317256
2.1990275
2.2938125
2.5338461
2.8209459
3.1310975
3.4833666
3.8551737
4.1750401
4.2983468
4.1496707
3.8280323
3.4199337
3.0229112
2.7349563
2.6863224
3.0248501
3.8352313
4.6126414
5.0440627
2.4537297
5.9082357
6.3323421
6.644461
3.2229657
3.0048099
1.1365213
0.61454946
1.9206737
4.5987993
4.153576
3.6007525
3.1139552
2.9065059
2.8540492
2.8073555
2.7166132
2.6344032
2.6203565
2.6662331
2.5307769
2.9105662
3.4777578
4.0677184
4.7395094
5.1540548
2.9993034
2.710952
2.3464371
2.1496752
2.2361231
2.4881821
2.7613182
3.0486569
3.3640395
3.6613058
3.84604
3.7915714
3.5568946
3.2648048
2.9876751
2.8414271
2.7853812
2.9170941
3.3619378
4.0877933
4.7184321
5.1502508
5.4517434
5.6437479
5.8115526
5.8987562
5.789958
5.2241
2.4507087
1.9848577
0.62461246
1.6768698
4.6922341
4.6685329
4.4081693
4.0700582
3.5990569
3.1661985
2.9589652
2.8862814
2.8318628
2.7719085
2.7507149
2.7971948
2.621166
2.9618721
3.4905734
4.0767751
4.7260486
5.1353826
3.2235559
2.8539246
2.3963439
2.1195515
2.1767356
2.410423
2.6518489
2.9094491
3.1718266
3.3901311
3.4555359
3.307076
3.0784185
2.8659908
2.789577
2.8035399
2.8845814
3.136835
3.6193703
4.228243
4.6984696
4.9727661
5.0936935
5.0866564
4.9965849
4.8163974
4.5467585
4.1391925
3.5602802
1.6536545
1.2365496
0.82263166
0.21807855
0.50190611
1.8397567
4.2334058
4.3534065
4.3314502
4.2159606
3.9647909
3.5851056
3.2244448
3.0207184
2.9359257
2.8942912
2.8823873
2.9235297
2.7522976
2.975051
3.4363756
4.0085904
4.644703
5.0624401
3.3604399
2.9437696
2.4205426
2.0857841
2.1002441
2.2931773
2.4964668
2.7181527
2.9330653
3.0827616
3.0631741
2.8940199
2.6929101
2.6308053
2.7129576
2.8022192
2.9778675
3.3064119
3.7755752
4.2574061
4.5637375
4.6629739
4.5949582
4.398551
4.1150356
3.7796789
3.4479456
3.1616077
3.3007518
3.9353097
3.6973856
1.4609477
1.374743
0.62310942
1.2886484
3.2395003
3.7992276
4.0015969
4.0931796
4.1153817
4.0590356
3.8654862
3.5451143
3.2406797
3.0682446
3.0026254
2.9865823
2.9946059
2.8201532
2.9486847
3.3244753
3.8712222
4.5016164
4.9367452
3.3996413
2.9670076
2.4121501
2.0499553
2.0235305
2.1656865
2.3286845
2.5103084
2.6918651
2.7972965
2.7428265
2.5575669
2.4258603
2.524274
2.6675527
2.8044709
3.0444118
3.4139975
3.8453558
4.2044372
4.3636034
4.3080096
4.0906535
3.769723
3.4189513
3.1128559
2.9738422
3.2491419
3.9195117
4.3652764
4.4744054
4.3818197
4.3498414
1.9303631
1.7398095
0.58317431
0.56636653
1.3904774
3.1288113
3.5065403
3.7060572
3.8400493
3.9322577
3.9847038
3.9490696
3.7620273
3.4723554
3.2326798
3.1159567
3.0747623
3.044989
2.8307355
2.899108
3.1828565
3.68751
4.3074532
4.7670479
3.4426066
3.0166247
2.4507103
2.0744714
2.0095048
2.1028826
2.2303878
2.3795994
2.5264413
2.6189753
2.5745821
2.3795159
2.3461374
2.4985577
2.6482666
2.8125291
3.0818808
3.4637813
3.8549124
4.1133268
4.1465182
3.9654407
3.6513783
3.2948925
2.9949693
2.8756802
3.1153081
3.6982818
4.2423545
4.5990435
4.7343533
4.541097
4.2629833
4.1576872
4.0256242
1.8249467
1.5539585
0.57157176
1.6828614
2.8608876
2.9957374
3.3153601
3.4934115
3.6291005
3.7488625
3.8547989
3.9152217
3.854125
3.6441258
3.3962088
3.242754
3.1683095
3.1113518
2.9389775
2.8928359
3.0603137
3.5144393
4.1031531
4.5942665
3.6710974
3.2493215
2.683259
2.2776308
2.1602945
2.2116717
2.3171542
2.4515762
2.5892808
2.6972561
2.6983502
2.5026406
2.479972
2.5900649
2.7031978
2.8479038
3.0948705
3.4591555
3.8123659
3.9973666
3.924397
3.6461775
3.2867188
2.9659805
2.8098096
2.9663268
3.4442538
4.0383623
4.5583223
4.9354933
5.0556617
4.7225533
4.266407
3.9624347
3.7455122
3.6042053
1.6337691
1.5283138
3.1796625
2.8075268
2.8193236
3.1303978
3.3265544
3.4710558
3.59866
3.724669
3.8362742
3.865602
3.7457972
3.5316773
3.3663735
3.2708743
3.1945042
3.0869631
2.9606664
2.9847901
3.4007764
3.9537967
4.5020311
4.1254677
3.7564266
3.2027286
2.7550895
2.5636748
2.5664873
2.6561959
2.7892527
2.9418639
3.0786021
3.1771723
2.9704115
2.7943849
2.8082714
2.8647297
2.9260565
3.0844756
3.3945453
3.7107893
3.8419717
3.6916326
3.350865
2.9894211
2.7610261
2.8159555
3.1832512
3.7865303
4.4212157
4.9580198
5.3471109
5.4462371
5.0165297
4.4972397
4.110463
3.815091
3.5525146
3.3154068
3.1226175
2.9761655
2.7466981
2.6572289
2.9158453
3.1449095
3.3186441
3.4725633
3.6114936
3.7472443
3.8332808
3.7909088
3.6281722
3.4698231
3.3718835
3.2830761
3.1953583
3.1458593
2.9776215
3.2519888
3.8456751
4.3814024
4.7057707
4.4703242
3.970313
3.4914631
3.2279978
3.1665852
3.2254329
3.3469473
3.4978894
3.6454919
3.821824
3.5614947
3.2688844
3.0477613
2.973431
2.9659085
3.0281608
3.2586594
3.5434805
3.6498364
3.4529019
3.0733263
2.7418213
2.6609917
2.9286385
3.4406332
4.1396327
4.8180368
5.3773577
5.7778065
5.8323937
5.369552
4.8530073
4.4216471
4.0896812
3.8099841
3.5805345
3.3837157
3.1805209
2.9406599
2.7041893
2.7433063
2.9389061
3.1380616
3.3295075
3.5051714
3.6566397
3.7747085
3.7906715
3.682014
3.5439832
3.454339
3.3597867
3.2661484
3.2498686
3.5061601
3.0609135
3.5719716
3.860176
5.318588
5.216417
4.8566897
4.4244257
4.1147282
3.9905621
4.0002404
4.0867163
4.2058023
4.2785939
4.2347944
4.0638328
3.8207205
3.5049589
3.1750312
2.9512705
2.8886352
3.0528348
3.312201
3.4264225
3.2108016
2.8060675
2.5506204
2.701074
3.0990125
3.7163323
4.4812089
5.2018673
5.7861319
6.1959624
6.1750269
5.7271039
5.2260651
4.7635302
4.4209208
4.1666163
3.9941772
3.8851884
3.7767709
3.5382979
3.1458442
2.8407569
2.8148656
2.9655184
3.1734719
3.3852929
3.5627667
3.6988522
3.7527336
3.6932875
3.5837335
3.5012558
3.4084627
3.3065978
3.2762902
3.5095906
3.517714
3.4781015
3.6732682
5.9398732
5.9250927
5.6876193
5.3379649
5.0368216
4.8673715
4.8213054
4.8590056
4.9327977
4.9539136
4.7952745
4.5480481
4.2601492
3.9430567
3.5621351
3.1888791
2.9156765
2.8755551
3.0560103
3.2001964
2.9891694
2.5916228
2.6064055
2.8795601
3.3332101
4.0024582
4.8152087
5.5658743
6.1667539
6.578721
6.4797223
6.0541207
5.5736904
5.0890518
4.7618963
4.5625288
4.4590906
4.4210982
4.3924516
4.2700534
3.9029314
3.312243
2.9930971
2.9409596
3.0804824
3.2833724
3.4738268
3.6164012
3.6905598
3.6707185
3.5929919
3.5183789
3.4289762
3.3254978
3.2844035
3.4538885
3.8919986
3.731012
3.8195931
6.563251
6.5875233
6.428044
6.1556516
5.8868567
5.6974972
5.5955724
5.6000349
5.6175028
5.5201952
5.2861407
5.0047945
4.7111875
4.3691523
3.9913539
3.5750182
3.1821043
2.9513041
2.9867922
3.0990684
2.9445601
2.5872979
2.8933052
3.2048118
3.6285133
4.3287897
5.1548518
5.9087421
6.506966
6.9060557
6.7339213
6.3102318
5.8073246
5.3599362
5.1232304
5.0170557
4.9896408
5.000099
4.9913827
4.8857747
4.5877446
4.0243165
3.4937391
3.3149242
3.215197
3.2955831
3.4319005
3.5548891
3.63163
3.6369313
3.5864692
3.5193475
3.4335993
3.3396236
3.3077753
3.4632558
3.9337407
4.0893293
4.1583541
7.1719859
7.1879972
7.0496881
6.8163943
6.5784373
6.3894824
6.2605979
6.1789792
6.1106582
5.9988452
5.7206128
5.4209189
5.1207955
4.803894
4.4305164
4.0323607
3.6147568
3.2783623
3.1912342
3.2579716
3.2230502
3.1592848
3.3006697
3.6135597
3.9888137
4.6965033
5.4877654
6.2138418
6.7939569
7.1179179
6.8837757
6.4532054
5.9865687
5.6317799
5.5089643
5.5043419
5.5530544
5.6067491
5.6120978
5.5063877
5.248195
4.806824
4.2378212
3.9811373
3.7652125
3.5409813
3.5159615
3.5629502
3.6164053
3.6285026
3.5951293
3.5337896
3.4533591
3.3788615
3.3732369
3.5491148
4.0211984
4.4411254
4.5744097
7.6200631
7.5973627
7.4187043
7.1542648
6.8863172
6.6571687
6.4713522
6.3118688
6.1594482
6.0038439
5.8517349
5.6911986
5.4506108
5.172308
4.8454145
4.507278
4.083341
3.7374996
3.5760668
3.6341518
3.6850531
3.6688023
3.7141778
3.9221893
4.3323736
4.9399167
5.6505768
6.3746994
6.9737426
7.1736995
6.8285389
6.361967
5.9773866
5.7565041
5.7087285
5.7590739
5.8530165
5.9416862