/*--------------------------------*- C++ -*----------------------------------*\
  =========                 |
  \\      /  F ield         | OpenFOAM: The Open Source CFD Toolbox
   \\    /   O peration     | Website:  https://openfoam.org
    \\  /    A nd           | Version:  8
     \\/     M anipulation  |
\*---------------------------------------------------------------------------*/
FoamFile
{
    version     2.0;
    format      ascii;
    class       volScalarField;
    location    "3600/air";
    object      p;
}
// * * * * * * * * * * * * * * * * * * * * * * * * * * * * * * * * * * * * * //

dimensions      [1 -1 -2 0 0 0 0];

internalField   nonuniform List<scalar> 
167754
(
99947.62
99947.644
99947.707
99947.809
99947.935
99948.057
99948.15
99948.184
99948.125
99947.969
99947.754
99947.516
99947.29
99947.233
99947.649
99948.655
99950.009
99951.584
99953.436
99955.597
99958.248
99961.821
99966.202
99969.714
99970.31
99968.429
99966.79
99965.987
99965.498
99965.03
99964.536
99964.142
99964.259
99965.193
99966.39
99967.047
99966.875
99965.977
99964.623
99963.052
99961.405
99959.759
99958.157
99956.619
99955.147
99953.738
99952.386
99951.099
99949.9
99948.818
99947.864
99947.016
99946.27
99945.657
99945.214
99944.951
99944.848
99944.858
99944.927
99947.772
99947.798
99947.863
99947.958
99948.066
99948.157
99948.195
99948.124
99947.898
99947.562
99947.243
99947.006
99946.829
99946.824
99947.329
99948.445
99949.792
99951.199
99952.69
99954.098
99955.603
99958.238
99962.589
99966.744
99967.659
99965.839
99964.882
99965.002
99965.107
99964.879
99964.138
99963.009
99962.493
99963.19
99964.371
99965.159
99965.284
99964.859
99964.004
99962.807
99961.381
99959.856
99958.325
99956.836
99955.398
99954.003
99952.653
99951.375
99950.214
99949.2
99948.3
99947.455
99946.667
99945.98
99945.458
99945.139
99945.013
99945.024
99945.112
99947.724
99947.737
99947.792
99947.869
99947.944
99947.967
99947.87
99947.558
99947.022
99946.453
99946.094
99945.972
99945.903
99945.895
99946.26
99947.18
99948.271
99949.265
99950.031
99950.131
99949.911
99951.372
99956.371
99962.121
99963.486
99961.201
99961.096
99962.446
99963.424
99963.512
99962.222
99960.2
99959.331
99960.081
99961.078
99961.453
99961.315
99961.13
99961.012
99960.713
99960.044
99959.039
99957.844
99956.597
99955.349
99954.056
99952.682
99951.304
99950.076
99949.104
99948.303
99947.513
99946.715
99945.967
99945.365
99944.991
99944.86
99944.914
99945.08
99947.32
99947.321
99947.36
99947.406
99947.422
99947.339
99947.045
99946.431
99945.564
99944.804
99944.441
99944.454
99944.618
99944.862
99945.142
99945.61
99946.292
99946.851
99946.939
99945.541
99973.264
99973.328
99949.084
99956.655
99958.705
99956.676
99957.656
99959.772
99961.221
99961.487
99959.811
99957.605
99957.214
99958.311
99959.264
99959.264
99958.458
99957.583
99957.176
99957.14
99957
99956.523
99955.763
99954.889
99954.029
99953.121
99951.992
99950.655
99949.382
99948.46
99947.812
99947.153
99946.408
99945.622
99944.914
99944.409
99944.185
99944.204
99944.382
99946.567
99946.565
99946.591
99946.6
99946.544
99946.333
99945.825
99944.917
99943.786
99942.868
99942.447
99942.491
99942.757
99943.232
99943.849
99943.898
99944.129
99944.335
99973.511
99972.041
99968.742
99966.215
99968.138
99948.504
99981.191
99953.365
99955.729
99958.378
99959.978
99960.128
99957.676
99955.401
99955.34
99956.377
99957.274
99957.304
99956.47
99955.212
99954.137
99953.547
99953.149
99952.689
99952.119
99951.506
99951.018
99950.661
99950.145
99949.243
99948.154
99947.366
99946.913
99946.44
99945.817
99945.043
99944.247
99943.581
99943.15
99942.993
99943.062
99945.637
99945.643
99945.662
99945.634
99945.495
99945.161
99944.482
99943.403
99942.132
99941.144
99940.572
99940.323
99940.031
99940.099
99941.319
99941.82
99941.464
99970.825
99970.888
99970.268
99982.869
99978.609
99964.712
99966.35
99973.772
99977.802
99982.58
99986.109
99959.776
99959.429
99955.503
99954.189
99954.027
99954.092
99954.004
99954.021
99953.644
99952.853
99951.799
99950.66
99949.479
99948.394
99947.59
99947.023
99946.731
99946.832
99947.061
99946.966
99946.44
99945.978
99945.768
99945.513
99945.068
99944.379
99943.554
99942.798
99942.208
99941.846
99941.734
99944.758
99944.769
99944.77
99944.692
99944.474
99944.035
99943.267
99942.167
99940.866
99939.977
99939.004
99937.85
99936.015
99934.965
99936.799
99937.84
99964.532
99965.714
99982.051
99985.51
99977.634
99962.387
99962.541
99979.264
99986.611
99981.569
99985.077
99986.82
99987.948
99984.446
99951.856
99951.983
99951.535
99950.723
99950.473
99950.236
99949.984
99949.447
99948.307
99946.281
99944.204
99942.906
99942.208
99941.882
99942.208
99943.053
99943.887
99944.259
99944.399
99944.53
99944.53
99944.289
99943.746
99942.975
99942.212
99941.592
99941.167
99940.988
99944.045
99944.052
99944.029
99943.895
99943.593
99943.072
99942.298
99941.218
99940.049
99966.84
99937.322
99934.751
99931.099
99928.963
99930.66
99961.225
99958.916
99972.495
99961.264
99959.369
99972.83
99992.561
99993.925
99979.164
99977.34
99970.131
99969.787
99941.792
99944.482
99945.799
99946.831
99947.082
99946.923
99945.761
99942.719
99939.86
99938.387
99937.775
99937.512
99937.803
99938.831
99940.367
99941.727
99942.699
99943.332
99943.64
99943.597
99943.203
99942.545
99941.861
99941.292
99940.909
99940.784
99943.442
99943.465
99943.445
99943.267
99942.869
99942.264
99941.511
99940.462
99967.69
99965.279
99962.413
99959.47
99927.261
99925.083
99926.669
99956.949
99968.338
99958.825
99954.738
99968.836
99982.428
99974.224
99953.899
99954.157
99959.576
99964.069
99940.11
99942.593
99943.197
99942.87
99937.864
99934.094
99933.391
99933.613
99933.873
99934.386
99935.432
99937.148
99939.197
99941.007
99942.284
99942.958
99943.082
99942.772
99942.259
99941.711
99941.191
99940.791
99940.67
99942.804
99942.87
99942.87
99942.623
99942.123
99941.463
99940.794
99940.093
99967.088
99979.643
99974.077
99956.994
99954.448
99953.921
99955.87
99953.289
99963.307
99980.686
99960.343
99966.311
99958.475
99955.651
99945.911
99953.063
99959.638
99961.905
99931.804
99927.877
99926.105
99928.212
99930.31
99931.279
99932.326
99933.495
99935.094
99937.441
99939.809
99941.622
99942.621
99942.821
99942.514
99942.131
99941.629
99941.016
99940.461
99940.236
99942.013
99942.115
99942.083
99941.626
99940.857
99940.202
99939.874
99967.982
99966.976
99981.583
99968.97
99955.251
99958.947
99947.639
99969.875
99961.932
99968.058
99947.099
99949.563
99939.029
99935.155
99936.202
99911.767
99921.013
99955.665
99930.042
99931.65
99932.633
99934.196
99936.809
99939.436
99941.474
99942.683
99942.955
99942.7
99942.298
99941.42
99940.437
99939.716
99939.434
99941.053
99941.121
99941.029
99940.397
99939.329
99938.591
99966.598
99966.161
99980.479
99968.133
99971.126
99957.522
99970.655
99974.478
99933.106
99939.841
99932.904
99941.963
99953.124
99959.02
99960.801
99961.538
99934.235
99937.167
99939.834
99941.817
99943.161
99943.637
99943.5
99942.888
99940.981
99939.298
99938.407
99938.054
99939.871
99939.834
99939.651
99939.018
99937.989
99937.21
99964.483
99964.63
99964.957
99991.239
99969.659
99974.746
99951.643
99941.032
99964.172
99974.604
99975.441
99961.473
99963.402
99966.441
99969.174
99942.896
99944.217
99944.838
99944.377
99943.37
99939.854
99937.308
99936.202
99935.655
99938.435
99938.321
99938.096
99937.713
99936.81
99963.87
99963.604
99977.046
99974.892
99969.601
99979.461
99939.167
99953.766
99976.657
99979.231
99968.769
99971.094
99973.389
99973.899
99973.11
99943.009
99941.976
99937.332
99934.081
99932.761
99932.053
99936.693
99936.583
99936.454
99936.569
99935.716
99961.379
99975.608
99958.798
99962.157
99974.014
99950.492
99937.252
99951.233
99989.036
99989.42
99973.191
99970.693
99967.688
99966.234
99932.905
99929.636
99928.246
99927.55
99934.556
99934.537
99934.632
99935.26
99962.103
99959.362
99972.602
99964.211
99952.204
99970.444
99947.337
99934.047
99949.154
99984.668
99981.01
99963.289
99956.074
99924.02
99923.3
99922.879
99932.14
99932.237
99932.447
99932.873
99960.238
99970.16
99941.067
99944.551
99964.91
99928.229
99942.815
99969.167
99949.3
99918.976
99919.041
99919.011
99929.936
99930.176
99930.445
99956.723
99955.213
99961.827
99952.068
99937.216
99940.539
99938.213
99923.678
99936.846
99958.418
99943.749
99915.905
99916.628
99916.948
99928.729
99929.066
99929.416
99956.166
99954.6
99951.135
99937.022
99936.196
99952.803
99937.729
99920.503
99933.924
99955.649
99941.541
99915.689
99916.703
99917.238
99929.652
99929.885
99930.198
99956.653
99956.53
99970.58
99936.073
99934.713
99935.412
99951.212
99924.248
99933.371
99942.675
99916.535
99917.91
99919.032
99919.673
99933.251
99933.159
99933.262
99933.607
99960.675
99973.461
99943.289
99931.243
99934.131
99951.401
99943.542
99926.417
99934.176
99946.133
99920.629
99921.963
99923.031
99923.701
99938.581
99938.135
99937.881
99938.048
99965.074
99964.99
99927.581
99934.712
99938.577
99952.55
99947.439
99930.333
99938.342
99950.621
99925.579
99926.938
99927.996
99928.705
99943.692
99943.046
99942.53
99942.352
99969.375
99969.512
99983.242
99940.571
99938.231
99941.501
99943.858
99948.844
99948.727
99948.994
99949.507
99950.035
99950.004
99949.646
99949.226
99948.746
99948.493
99949.345
99951.504
99956.858
99961.087
99959.862
99954.212
99949.057
99947.403
99946.123
99945.598
99944.07
99938.446
99934.807
99942.157
99955.953
99930.762
99932.184
99933.304
99934.11
99946.792
99946.203
99945.769
99945.669
99945.962
99973.641
99986.676
99944.431
99950.406
99949.369
99961.987
99946.801
99962.612
99963.331
99963.996
99964.52
99964.398
99964.118
99963.829
99963.778
99962.919
99963.651
99965.649
99969.222
99972.672
99972.282
99966.534
99961.662
99961.114
99960.226
99959.713
99958.2
99940.822
99938.437
99945.694
99975.796
99960.996
99935.643
99937.193
99938.462
99939.438
99947.146
99946.786
99946.692
99946.976
99947.613
99976.609
99990.39
99963.029
99962.457
99961.393
99960.497
99969.361
99960.539
99948.175
99951.68
99970.739
99963.35
99949.286
99963.392
99972.531
99965.762
99965.281
99948.601
99947.309
99944.828
99941.975
99949.172
99980.186
99965.442
99939.996
99941.644
99943.128
99944.339
99945.452
99945.359
99945.626
99946.337
99947.49
99977.757
99978.822
99979.26
99971.27
99975.516
99970.301
99968.102
99990.982
99959.373
99964.35
99959.648
99965.367
99965.423
99965.86
99964.911
99963.607
99963.693
99962.79
99964.622
99967.745
99970.25
99972.001
99959.256
99956.231
99969.866
99967.691
99951.437
99950.381
99949.379
99921.267
99945.582
99953.207
99983.859
99969.27
99943.686
99945.392
99947.163
99948.658
99943.015
99943.103
99943.58
99944.512
99945.963
99976.763
99978.776
99991.193
99974.369
99986.688
100003.51
99992.56
99982.793
99977.794
99963.496
99988.556
99963.931
99963.131
99962.405
99962.276
99963.051
99965.376
99967.9
99969.399
99971.087
99975.341
99961.134
99972.135
99970.01
99953.625
99925.04
99925.357
99953.663
99949.792
99959.065
99987.052
99972.368
99946.623
99948.474
99950.573
99952.358
99940.77
99940.948
99941.508
99942.482
99943.98
99946.438
99977.551
99990.584
99991.202
99987.39
99995.263
100005.6
99994.672
99984.046
99980.091
99980.089
99981.897
99970.357
99974.753
99963.928
99964.047
99963.337
99963.069
99964.254
99966.718
99969.047
99970.722
99971.029
99967.424
99964.399
99972.704
99955.733
99954.744
99956.274
99958.414
99955.062
99962.832
99975.155
99947.491
99948.898
99950.993
99953.389
99955.406
99938.961
99939.187
99939.774
99940.742
99942.201
99944.447
99948.098
99980.443
99980.317
99993.916
99983.162
99992.615
100010.08
100001.66
99997.128
99959.848
99964.067
99936.773
99936.418
99935.666
99936.04
99937.915
99940.394
99942.345
99943.154
99942.368
99967.897
99965.876
99975.2
99958.138
99956.452
99960.617
99963.581
99967.485
99966.312
99976.186
99949.585
99950.844
99953.049
99955.622
99957.745
99937.464
99937.706
99938.295
99939.234
99940.624
99942.66
99945.795
99950.499
99982.456
99984.527
99961.968
99964.092
99993.163
99986.636
99998.778
99974.621
99964.031
99937.14
99937.373
99936.659
99935.875
99936.201
99937.813
99939.908
99941.552
99942.268
99941.925
99968.114
99966.98
99976.232
99960.499
99972.685
99966.873
99969.367
99974.317
99974.612
99996.436
100004.83
99977.937
99951.689
99952.544
99954.667
99957.217
99959.281
99936.113
99936.341
99936.912
99937.803
99939.062
99940.811
99943.293
99947.252
99951.653
99955.98
99989.98
99992.993
99990.163
99987.114
100001.08
99964.528
99937.344
99938.077
99937.759
99936.776
99936.039
99936.308
99937.655
99939.44
99940.924
99941.673
99941.648
99968.258
99967.512
99977.239
99976.114
99976.723
99980.47
99986.324
99988.826
100002.12
99990.557
99991.407
99992.905
100010.48
100011.3
99993.083
99980.112
99953.269
99953.835
99955.708
99958.026
99959.863
99934.827
99935.018
99935.559
99936.405
99937.527
99938.983
99940.932
99944.003
99947.981
99981.204
99984.415
100004.94
99988.294
99985.509
100000.2
99965.278
99938.26
99938.71
99938.166
99937.132
99936.363
99936.475
99937.558
99939.112
99940.513
99941.335
99941.545
99968.393
99967.814
99978.843
99978.485
99966.696
99968.102
99976.838
100023.61
100026.45
100019.37
99996.505
99992.594
99991.491
100003.94
100001.88
99994.045
99981.299
99954.469
99954.665
99956.047
99957.938
99959.414
99933.596
99933.739
99934.254
99935.07
99936.095
99937.333
99938.88
99941.203
99944.478
99974.967
99977.721
99994.891
99992.412
99982.838
99995.709
99966.034
99939.164
99939.348
99938.645
99937.548
99936.696
99936.627
99937.462
99938.827
99940.172
99941.064
99941.481
99968.569
99968.164
99982.537
99980.07
99980.076
99981.246
99968.937
99980.278
100027.27
100023.46
100010.74
99988.387
99985.818
99984.482
99996.92
99996.768
99995.656
99982.539
99955.261
99954.874
99955.554
99956.929
99958.015
99932.448
99932.538
99933.035
99933.82
99934.771
99935.886
99937.222
99939.087
99941.685
99970.862
99972.932
99986.946
99971.536
99987.475
99985.984
99967.082
99940.227
99939.979
99939.047
99937.878
99936.963
99936.714
99937.302
99938.464
99939.727
99940.649
99941.222
99968.722
99968.681
99982.188
99981.166
99981.001
99969.023
99982.797
100009.42
100003.24
99998.296
99981.179
99979.24
99978.755
99952.685
99953.613
99953.477
99953.985
99955.045
99955.857
99931.42
99931.466
99931.944
99932.706
99933.617
99934.653
99935.932
99937.702
99939.865
99941.461
99971.244
99984.499
99983.903
99968.394
99980.647
99968.669
99969.286
99968.485
99967.287
99966.037
99964.988
99964.395
99964.474
99965.172
99966.205
99967.158
99967.82
99968.373
99969.097
99982.652
99981.6
99981.374
99968.786
99993.08
99985.238
99970.309
99948.239
99950.383
99950.867
99951.593
99952.564
99953.245
99930.555
99930.581
99931.057
99931.834
99932.758
99933.768
99935.032
99936.761
99938.595
99940.223
99969.158
99968.803
99982.927
99969.793
99969.507
99969.211
99969.636
99969.888
99970.21
99970.402
99983.406
99978.211
99976.782
99975.668
99974.883
99974.497
99974.501
99974.916
99975.604
99976.353
99976.993
99978.457
99969.138
99982.928
99981.957
99968.149
99981.957
99964.089
99960.999
99944.072
99946.896
99947.994
99948.963
99949.935
99950.556
99929.899
99929.939
99930.448
99931.28
99932.256
99933.279
99934.531
99936.074
99937.598
99939.058
99967.337
99967.397
99981.841
99984.398
99985.537
99970.978
99971.604
99971.889
99971.705
99971.355
99984.403
99975.992
99974.937
99974.246
99973.803
99973.81
99974.027
99974.436
99974.969
99975.403
99975.933
99978.057
99969.099
99982.89
99982.216
99982.067
99957.352
99936.906
99942.186
99944.364
99945.557
99946.588
99947.532
99948.13
99929.495
99929.603
99930.167
99931.068
99932.088
99933.12
99934.317
99935.602
99936.798
99937.929
99965.759
99965.993
99979.939
99982.565
99983.954
99971.397
99972.031
99972.726
99972.266
99971.192
99984.74
99981.535
99979.943
99979.021
99977.376
99964.513
99964.631
99977.967
99979.604
99980.194
99980.703
99981.204
99969.028
99969
99969.041
99982.681
99974.589
99960.924
99938.464
99941.427
99942.776
99943.743
99944.682
99945.566
99946.181
99929.392
99929.606
99930.232
99931.18
99932.197
99933.193
99934.272
99935.27
99936.192
99936.924
99936.946
99965.039
99965.418
99966.77
99981.955
99983.143
99970.845
99972.104
99986.01
99984.451
99982.23
99978.154
99977.717
99977.241
99962.725
99964.533
99964.466
99977.079
99977.348
99977.934
99978.94
99967.577
99982.93
99969.508
99983.044
99977.858
99963.308
99937.812
99939.281
99940.824
99941.649
99942.403
99943.233
99944.09
99944.75
99929.684
99929.965
99930.639
99931.587
99932.531
99933.438
99934.346
99935.115
99935.808
99936.237
99936.021
99963.652
99964.189
99966.701
99968.179
99969.4
99970.579
99970.947
99970.522
99969.464
99967.519
99965.671
99965.022
99964.896
99964.4
99964.41
99964.513
99964.559
99964.94
99965.634
99967.184
99968.964
99970.076
99970.432
99983.761
99965.106
99938.834
99939.126
99939.582
99940.315
99940.83
99941.436
99942.171
99943.024
99943.728
99930.375
99930.673
99931.355
99932.229
99933.027
99933.788
99934.52
99935.12
99935.581
99935.672
99935.034
99961.767
99974.103
99980.071
99982.134
99983.401
99984.473
99984.86
99984.58
99983.85
99982.393
99980.661
99979.761
99979.736
99979.182
99978.528
99978.617
99979.122
99979.611
99980.141
99980.356
99970.379
99970.757
99971.343
99985.489
99979.81
99966.35
99939.733
99939.549
99939.609
99939.912
99940.235
99940.74
99941.403
99942.219
99942.94
99931.34
99931.653
99932.286
99933.001
99933.606
99934.203
99934.794
99935.322
99935.68
99935.686
99935.144
99960.713
99970.221
99985.086
99970.871
99971.064
99971.743
99972.168
99972.203
99985.894
99966.736
99940.318
99939.898
99939.599
99939.478
99939.53
99939.709
99940.134
99940.757
99941.518
99942.23
99932.452
99932.765
99933.285
99933.787
99934.2
99934.665
99935.195
99935.727
99936.161
99936.559
99936.941
99963.573
99960.67
99984.776
99970.658
99970.522
99984.353
99986.177
99972.413
99972.15
99985.295
99980.271
99967.196
99940.434
99939.859
99939.508
99939.234
99939.115
99939.17
99939.504
99940.079
99940.802
99941.496
99933.586
99933.865
99934.227
99934.511
99934.78
99935.175
99935.687
99936.253
99936.835
99937.652
99938.821
99966.388
99964.27
99977.005
99970.144
99969.569
99983.481
99986.116
99985.435
99970.628
99969.851
99982.965
99966.917
99940.577
99940.22
99939.674
99939.27
99938.897
99938.651
99938.591
99938.824
99939.335
99940.027
99940.7
99934.652
99934.866
99935.061
99935.174
99935.379
99935.741
99936.241
99936.837
99937.565
99938.571
99939.896
99940.733
99967.084
99978.3
99983.281
99967.926
99967.178
99982.374
99983.573
99968.308
99967.945
99968.435
99982.581
99980.303
99967.212
99940.768
99940.07
99939.452
99938.942
99938.484
99938.135
99937.974
99938.106
99938.547
99939.203
99939.845
99935.633
99935.761
99935.81
99935.84
99936.029
99936.383
99936.87
99937.482
99938.291
99939.318
99940.485
99941.444
99968.677
99979.655
99981.932
99967.259
99966.721
99980.835
99981.908
99968.018
99968.496
99983.24
99983.724
99981.324
99967.401
99941.07
99940.638
99939.842
99939.157
99938.545
99938.004
99937.574
99937.336
99937.378
99937.749
99938.367
99938.965
99936.572
99936.602
99936.546
99936.547
99936.721
99937.062
99937.528
99938.137
99938.936
99939.879
99940.817
99941.744
99969.571
99967.399
99968.376
99967.727
99968.38
99982.111
99982.305
99982.565
99969.569
99970.413
99984.238
99969.589
99941.71
99941.662
99940.617
99939.594
99938.775
99938.072
99937.455
99936.975
99936.694
99936.67
99936.982
99937.563
99938.113
99937.514
99937.441
99937.322
99937.302
99937.448
99937.767
99938.204
99938.763
99939.471
99940.272
99941.052
99942.021
99970.263
99969.139
99980.978
99984.164
99969.085
99968.324
99982.244
99983.666
99970.483
99970.208
99943.097
99942.031
99941.555
99940.431
99939.262
99938.317
99937.525
99936.849
99936.35
99936.059
99936.002
99936.273
99936.829
99937.35
99938.481
99938.331
99938.177
99938.119
99938.224
99938.493
99938.866
99939.326
99939.885
99940.504
99941.13
99942.006
99943.35
99971.21
99968.427
99980.356
99970.168
99969.367
99969.004
99968.263
99942.394
99941.847
99941.123
99940.146
99938.836
99937.792
99936.924
99936.204
99935.714
99935.441
99935.379
99935.623
99936.165
99936.689
99939.491
99939.302
99939.115
99939.009
99939.045
99939.215
99939.469
99939.783
99940.161
99940.589
99941.065
99941.796
99942.926
99943.548
99970.966
99967.472
99980.832
99970.358
99969.399
99968.998
99983.222
99980.844
99967.64
99942.148
99941.839
99940.893
99939.964
99938.445
99937.25
99936.3
99935.544
99935.087
99934.85
99934.785
99934.996
99935.52
99936.053
99940.514
99940.31
99940.082
99939.904
99939.84
99939.887
99940
99940.155
99940.356
99940.613
99940.966
99941.523
99942.157
99941.926
99940.027
99937.597
99966.061
99967.875
99982.348
99987.918
99970.935
99968.832
99982.372
99968.196
99942.231
99942.687
99942.268
99940.952
99939.85
99938.149
99936.74
99935.682
99934.903
99934.506
99934.296
99934.193
99934.35
99934.844
99935.375
99941.45
99941.244
99940.967
99940.705
99940.545
99940.486
99940.464
99940.48
99940.545
99940.682
99940.96
99941.311
99941.337
99940.38
99938.487
99937.62
99940.401
99968.428
99969.382
99983.896
99976.853
99972.493
99968.544
99981.709
99982.721
99969.614
99943.921
99943.58
99942.899
99941.255
99939.758
99937.91
99936.283
99935.101
99934.327
99934.005
99933.779
99933.606
99933.701
99934.177
99934.741
99942.169
99941.977
99941.672
99941.346
99941.127
99940.988
99940.866
99940.785
99940.768
99940.855
99941.028
99941.059
99940.551
99939.405
99938.442
99939.127
99942.873
99945.608
99947.605
99972.124
99969.656
99982.707
99983.434
99951.44
99975.923
99983.476
99982.237
99969.004
99944.521
99944.648
99944.102
99943.364
99941.616
99939.764
99937.72
99935.868
99934.576
99933.858
99933.601
99933.328
99933.073
99933.119
99933.639
99934.296
99942.583
99942.433
99942.14
99941.807
99941.581
99941.408
99941.237
99941.106
99941.051
99941.088
99941.081
99940.741
99939.94
99939.161
99939.284
99940.583
99943.287
99945.422
99948.239
99946.769
99971.798
99971.744
99987.982
99981.037
99953.263
99981.873
99979.808
99996.597
99966.875
99943.922
99945.17
99944.697
99944.096
99943.458
99941.831
99939.841
99937.634
99935.543
99934.133
99933.52
99933.291
99932.972
99932.634
99932.678
99933.311
99934.099
99942.712
99942.628
99942.404
99942.134
99941.943
99941.778
99941.597
99941.447
99941.38
99941.338
99941.107
99940.518
99939.806
99939.59
99940.106
99941.026
99942.375
99943.668
99945.558
99945.647
99946.29
99947.761
99977.574
99952.138
99953.144
99954.238
99984.58
99983.761
99993.321
99980.455
99967.501
99945.944
99945.831
99944.599
99943.658
99942.967
99941.673
99939.837
99937.65
99935.456
99933.903
99933.377
99933.125
99932.742
99932.323
99932.419
99933.193
99934.085
99942.651
99942.648
99942.542
99942.384
99942.255
99942.116
99941.951
99941.802
99941.716
99941.583
99941.193
99940.592
99940.217
99940.33
99940.679
99941.166
99942.016
99942.935
99943.857
99944.517
99945.777
99947.437
99949.131
99950.321
99951.138
99951.623
99951.845
99951.342
99978.558
99975.306
99989.519
99966.583
99945.115
99947.204
99946.422
99944.791
99943.269
99942.129
99940.991
99939.524
99937.615
99935.576
99933.977
99933.483
99933.187
99932.686
99932.167
99932.335
99933.231
99934.178
99942.525
99942.599
99942.62
99942.589
99942.524
99942.418
99942.285
99942.152
99942.044
99941.846
99941.423
99940.992
99940.908
99941.061
99941.189
99941.504
99942.13
99942.719
99943.152
99943.763
99944.841
99946.096
99947.242
99948.091
99948.828
99949.483
99950.036
99950.152
99949.517
99976.074
99975.752
99975.643
99989.568
99983.12
99968.352
99946.015
99947.182
99946.513
99945.076
99943.326
99941.637
99940.17
99938.826
99937.329
99935.665
99934.218
99933.769
99933.414
99932.777
99932.152
99932.392
99933.371
99934.326
99942.432
99942.556
99942.678
99942.746
99942.737
99942.668
99942.579
99942.476
99942.357
99942.143
99941.785
99941.55
99941.604
99941.683
99941.715
99941.899
99942.165
99942.306
99942.431
99942.778
99943.471
99944.273
99945.115
99946.1
99947.369
99948.842
99950.115
99950.629
99950.239
99949.227
99948.518
99975.928
99975.374
99989.139
99970.488
99943.325
99945.031
99945.996
99945.81
99944.932
99943.522
99941.725
99939.821
99938.158
99936.789
99935.526
99934.365
99933.931
99933.523
99932.868
99932.241
99932.563
99933.589
99934.512
99942.405
99942.549
99942.729
99942.852
99942.883
99942.858
99942.823
99942.769
99942.663
99942.472
99942.207
99942.1
99942.213
99942.282
99942.287
99942.296
99942.206
99941.971
99941.772
99941.677
99941.895
99942.426
99943.4
99944.959
99946.933
99948.875
99950.223
99950.702
99950.36
99949.671
99949.221
99948.785
99947.911
99975.181
99974.524
99988.707
99985.759
99971.795
99944.211
99943.826
99944.265
99944.422
99944.164
99943.392
99942.003
99940.061
99937.999
99936.34
99935.164
99934.236
99933.715
99933.225
99932.74
99932.342
99932.808
99933.865
99934.729
99942.419
99942.568
99942.765
99942.907
99942.964
99942.982
99943.006
99943.011
99942.95
99942.799
99942.603
99942.565
99942.74
99942.917
99942.935
99942.776
99942.437
99941.941
99941.41
99940.884
99940.685
99941.137
99942.439
99944.504
99946.678
99948.42
99949.596
99950.16
99950.244
99950.024
99949.649
99949.057
99948.118
99947.127
99946.398
99974.318
99973.94
99987.144
99973.246
99945.689
99944.915
99943.412
99942.852
99942.854
99942.988
99942.835
99942.078
99940.538
99938.421
99936.339
99934.891
99933.96
99933.248
99932.612
99932.34
99932.336
99933.05
99934.159
99934.967
99942.439
99942.586
99942.773
99942.917
99942.99
99943.04
99943.108
99943.163
99943.154
99943.056
99942.906
99942.896
99943.151
99943.506
99943.618
99943.353
99942.82
99942.115
99941.272
99940.414
99939.963
99940.442
99941.984
99944.053
99945.909
99947.431
99948.699
99949.67
99950.18
99950.143
99949.689
99948.927
99947.966
99947.022
99946.243
99945.676
99973.725
99973.409
99945.177
99945.196
99944.661
99943.237
99942.087
99941.754
99941.896
99942.082
99941.896
99940.948
99939.167
99936.934
99935.075
99933.874
99933.008
99932.234
99932.046
99932.401
99933.334
99934.492
99935.274
99942.458
99942.596
99942.763
99942.898
99942.984
99943.057
99943.153
99943.247
99943.286
99943.241
99943.138
99943.128
99943.403
99943.872
99944.144
99943.926
99943.277
99942.377
99941.275
99940.136
99939.498
99939.958
99941.492
99943.228
99944.735
99946.274
99947.86
99949.265
99950.07
99950.098
99949.509
99948.556
99947.52
99946.597
99945.834
99945.237
99944.76
99944.45
99944.235
99944.032
99943.577
99942.662
99941.588
99941.145
99941.21
99941.472
99941.644
99941.25
99939.997
99937.976
99935.861
99934.366
99933.431
99932.601
99932.361
99932.944
99933.939
99935.05
99935.787
99942.516
99942.635
99942.776
99942.898
99942.988
99943.077
99943.19
99943.313
99943.396
99943.403
99943.346
99943.321
99943.526
99943.973
99944.333
99944.275
99943.683
99942.667
99941.363
99939.987
99939.132
99939.478
99940.796
99942.156
99943.617
99945.318
99947.195
99948.951
99949.969
99950.019
99949.278
99948.118
99946.95
99945.998
99945.261
99944.686
99944.216
99943.806
99943.4
99942.942
99942.403
99941.725
99941.011
99940.706
99940.844
99941.179
99941.506
99941.52
99940.8
99939.224
99937.201
99935.596
99934.628
99933.883
99933.616
99934.161
99935.11
99936.055
99936.674
99942.672
99942.766
99942.875
99942.976
99943.062
99943.155
99943.277
99943.417
99943.536
99943.589
99943.565
99943.518
99943.593
99943.874
99944.185
99944.245
99943.835
99942.877
99941.473
99939.908
99938.826
99938.953
99939.971
99941.248
99942.842
99944.63
99946.694
99948.676
99949.825
99949.877
99949.01
99947.679
99946.377
99945.368
99944.639
99944.068
99943.573
99943.088
99942.549
99941.909
99941.214
99940.58
99940.207
99940.272
99940.641
99941.135
99941.57
99941.833
99941.545
99940.483
99938.828
99937.337
99936.41
99935.848
99935.696
99936.123
99936.841
99937.564
99938.031
99942.995
99943.064
99943.136
99943.208
99943.279
99943.369
99943.493
99943.643
99943.786
99943.871
99943.863
99943.78
99943.715
99943.764
99943.883
99943.901
99943.622
99942.859
99941.536
99939.92
99938.661
99938.531
99939.371
99940.823
99942.47
99944.219
99946.322
99948.337
99949.498
99949.523
99948.576
99947.145
99945.763
99944.729
99944.011
99943.436
99942.92
99942.394
99941.784
99941.039
99940.18
99939.495
99939.339
99939.827
99940.564
99941.266
99941.845
99942.222
99942.226
99941.625
99940.443
99939.239
99938.482
99938.13
99938.146
99938.5
99938.997
99939.468
99939.785
99943.535
99943.581
99943.621
99943.662
99943.713
99943.795
99943.919
99944.079
99944.238
99944.336
99944.323
99944.198
99944.01
99943.828
99943.689
99943.538
99943.241
99942.643
99941.559
99940.103
99938.842
99938.564
99939.419
99941.102
99942.651
99944.201
99946.08
99947.858
99948.857
99948.807
99947.851
99946.461
99945.162
99944.222
99943.555
99942.998
99942.495
99941.984
99941.396
99940.675
99939.809
99939.074
99939.031
99939.723
99940.735
99941.61
99942.292
99942.717
99942.88
99942.623
99941.9
99941.08
99940.588
99940.425
99940.554
99940.878
99941.219
99941.491
99941.667
99944.292
99944.317
99944.329
99944.343
99944.375
99944.448
99944.572
99944.734
99944.895
99944.989
99944.959
99944.791
99944.506
99944.151
99943.765
99943.409
99943.031
99942.512
99941.724
99940.631
99939.575
99939.233
99940.075
99941.641
99943.008
99944.313
99945.791
99947.101
99947.784
99947.633
99946.791
99945.658
99944.611
99943.806
99943.172
99942.623
99942.136
99941.675
99941.201
99940.679
99940.085
99939.578
99939.612
99940.321
99941.327
99942.185
99942.843
99943.274
99943.482
99943.433
99943.074
99942.633
99942.413
99942.417
99942.625
99942.938
99943.183
99943.329
99943.4
99945.224
99945.216
99945.19
99945.168
99945.176
99945.233
99945.342
99945.485
99945.623
99945.698
99945.657
99945.471
99945.144
99944.722
99944.195
99943.599
99943.224
99942.742
99942.283
99941.592
99940.82
99940.282
99940.44
99941.395
99942.591
99943.809
99944.985
99945.8
99946.13
99945.924
99945.341
99944.563
99943.672
99942.822
99942.039
99941.359
99940.81
99940.391
99940.08
99939.876
99939.816
99939.99
99940.525
99941.366
99942.269
99942.987
99943.598
99944.057
99944.329
99944.427
99944.338
99944.19
99944.152
99944.233
99944.423
99944.648
99944.793
99944.867
99944.894
99946.049
99945.933
99945.873
99945.835
99945.834
99945.877
99945.957
99946.056
99946.144
99946.186
99946.148
99946.001
99945.737
99945.394
99944.841
99943.855
99943.788
99943.108