/*--------------------------------*- C++ -*----------------------------------*\
  =========                 |
  \\      /  F ield         | OpenFOAM: The Open Source CFD Toolbox
   \\    /   O peration     | Website:  https://openfoam.org
    \\  /    A nd           | Version:  8
     \\/     M anipulation  |
\*---------------------------------------------------------------------------*/
FoamFile
{
    version     2.0;
    format      ascii;
    class       volScalarField;
    location    "3600/air";
    object      p_rgh;
}
// * * * * * * * * * * * * * * * * * * * * * * * * * * * * * * * * * * * * * //

dimensions      [1 -1 -2 0 0 0 0];

internalField   nonuniform List<scalar> 
167754
(
100003.16
100003.17
100003.23
100003.33
100003.46
100003.58
100003.68
100003.71
100003.63
100003.45
100003.2
100002.96
100002.71
100002.56
100002.77
100003.66
100005.13
100006.86
100008.79
100010.99
100013.62
100016.99
100021.04
100024.36
100025.1
100023.56
100022.11
100021.43
100021.05
100020.69
100020.36
100020.23
100020.67
100021.74
100022.81
100023.2
100022.75
100021.63
100020.13
100018.45
100016.72
100015.01
100013.35
100011.76
100010.23
100008.74
100007.29
100005.9
100004.6
100003.42
100002.39
100001.47
100000.67
100000.02
99999.579
99999.332
99999.256
99999.293
99999.384
100003.24
100003.26
100003.32
100003.42
100003.54
100003.63
100003.65
100003.54
100003.23
100002.78
100002.37
100002.12
100001.98
100001.93
100002.27
100003.3
100004.84
100006.47
100008.06
100009.56
100011.13
100013.6
100017.52
100021.36
100022.42
100020.96
100020.13
100020.36
100020.6
100020.4
100019.67
100018.74
100018.58
100019.46
100020.55
100021.14
100021.09
100020.5
100019.5
100018.18
100016.67
100015.09
100013.51
100011.98
100010.5
100009.02
100007.56
100006.17
100004.91
100003.81
100002.82
100001.87
100001
100000.26
99999.717
99999.409
99999.311
99999.357
99999.477
100003.13
100003.13
100003.18
100003.25
100003.33
100003.34
100003.19
100002.76
100002.04
100001.26
100000.74
100000.61
100000.64
100000.7
100001
100001.88
100003.23
100004.51
100005.42
100005.71
100005.7
100007.04
100011.51
100016.77
100018.26
100016.3
100016.16
100017.57
100018.63
100018.56
100017.09
100015.37
100014.99
100015.91
100016.76
100017
100016.86
100016.73
100016.57
100016.15
100015.33
100014.21
100012.95
100011.68
100010.41
100009.05
100007.53
100006.01
100004.69
100003.67
100002.79
100001.9
100000.99
100000.16
99999.521
99999.149
99999.05
99999.154
99999.373
100002.63
100002.62
100002.65
100002.7
100002.7
100002.58
100002.19
100001.38
100000.23
99999.169
99998.575
99998.543
99998.789
99999.156
99999.595
100000.18
100001.18
100002.07
100002.34
100001.16
100000.94
100001.16
100004.79
100011.75
100013.86
100011.83
100012.45
100014.56
100015.99
100015.9
100014.02
100012.29
100012.44
100013.52
100014.24
100014.07
100013.36
100012.74
100012.51
100012.48
100012.19
100011.53
100010.64
100009.72
100008.9
100007.98
100006.73
100005.23
100003.87
100002.94
100002.25
100001.51
100000.64
99999.746
99998.968
99998.437
99998.233
99998.307
99998.552
100001.79
100001.77
100001.79
100001.8
100001.73
100001.46
100000.81
99999.65
99998.175
99996.905
99996.228
99996.17
99996.426
99996.889
99997.736
99998.341
99998.922
99999.486
100000.36
99999.347
99996.402
99994.147
99996.408
100004.57
100008.68
100008.43
100010.29
100012.95
100014.46
100014
100011.22
100009.67
100009.97
100011.02
100011.66
100011.46
100010.61
100009.66
100008.95
100008.53
100008.09
100007.44
100006.67
100005.98
100005.55
100005.27
100004.71
100003.67
100002.51
100001.75
100001.29
100000.77
100000.04
99999.123
99998.219
99997.483
99997.031
99996.908
99997.034
100000.77
100000.77
100000.8
100000.78
100000.62
100000.22
99999.366
99998.003
99996.364
99995.037
99994.202
99993.775
99993.29
99993.163
99994.59
99996.138
99996.253
99997.494
99997.796
99997.588
99996.235
99992.65
99992.78
99994.977
100001.86
100004.79
100009.05
100012.65
100014.23
100012.9
100008.33
100007.65
100008.01
100008.19
100008.06
100007.97
100007.47
100006.74
100006.03
100005.21
100004.09
100002.88
100001.85
100001.13
100000.85
100001.09
100001.38
100001.23
100000.68
100000.26
100000.11
99999.84
99999.315
99998.457
99997.477
99996.614
99995.955
99995.577
99995.49
99999.813
99999.829
99999.846
99999.785
99999.561
99999.046
99998.102
99996.716
99995.048
99993.824
99992.54
99991.068
99988.905
99987.672
99989.869
99992.447
99991.108
99992.55
99994.564
99998.121
99991.937
99990.243
99990.457
99993.807
100000.5
100009.46
100012.69
100014.15
100013.92
100008.47
100004.09
100004.82
100004.99
100004.43
100004.28
100004.04
100003.71
100003.26
100002.46
100000.56
99998.429
99996.961
99996.069
99995.654
99996.078
99997.073
99997.974
99998.384
99998.619
99998.85
99998.877
99998.571
99997.854
99996.883
99995.979
99995.262
99994.789
99994.611
99999.024
99999.037
99999.034
99998.93
99998.639
99998.05
99997.112
99995.769
99994.259
99992.822
99990.755
99987.744
99983.814
99981.711
99983.951
99987.497
99986.062
99984.805
99988.934
99986.711
99986.049
100008.7
100009.23
100007.2
100003.13
99994.775
99994.133
99995.031
99998.088
99999.575
100000.63
100000.81
100000.6
99999.488
99996.481
99993.665
99992.201
99991.482
99991.079
99991.354
99992.543
99994.256
99995.761
99996.896
99997.664
99998.014
99997.908
99997.346
99996.458
99995.596
99994.9
99994.456
99994.337
99998.294
99998.304
99998.286
99998.145
99997.798
99997.167
99996.272
99995.021
99994.047
99991.397
99988.11
99984.81
99980.014
99978.094
99980.21
99982.915
99980.52
99986.132
99981.95
99982.313
99995.157
99985.039
99978.665
99979.141
99985.258
99990.191
99993.989
99996.445
99997.174
99996.682
99991.07
99987.34
99986.852
99987.147
99987.314
99987.761
99988.922
99990.875
99993.173
99995.231
99996.663
99997.36
99997.397
99996.934
99996.2
99995.392
99994.654
99994.129
99993.99
99997.361
99997.372
99997.314
99997.065
99996.654
99996.092
99995.396
99994.523
99993.584
99992.048
99985.716
99982.331
99979.501
99979.147
99981.361
99979.365
99975.137
99993.985
99987.54
99979.047
99968.62
99966.019
99971.261
99978.898
99985.613
99987.986
99985.6
99981.14
99979.117
99981.543
99983.908
99984.793
99985.726
99986.968
99988.807
99991.483
99994.157
99996.098
99997.062
99997.148
99996.711
99996.071
99995.154
99994.163
99993.372
99993.051
99996.04
99996.052
99995.922
99995.422
99994.662
99994.2
99994.031
99994.323
99993.493
99994.178
99980.259
99980.732
99984.493
99973.245
99997.409
99989.109
99980.835
99958.672
99961.408
99964.066
99959.332
99960.963
99965.044
99974.83
99981.328
99983.632
99985.14
99986.197
99988.015
99991.001
99993.919
99996.049
99997.219
99997.398
99996.949
99996.08
99994.562
99993.129
99992.121
99991.679
99994.538
99994.596
99994.517
99993.879
99992.734
99991.986
99992.388
99992.217
99992.882
99979.776
99982.392
99968.452
99998.323
99987.339
99943.283
99950.475
99958.204
99967.917
99979.088
99984.501
99986.058
99986.82
99988.389
99991.743
99994.607
99996.594
99997.896
99998.229
99997.645
99996.137
99993.454
99991.407
99990.289
99989.791
99993.048
99993.07
99992.95
99992.306
99991.159
99990.122
99990.06
99990.466
99975.818
100004.98
99996.936
99987.347
99963.019
99966.753
99975.741
99985.702
99986.442
99986.968
99989.426
99992.921
99995.76
99997.698
99998.859
99999.122
99997.944
99995.706
99991.622
99988.872
99987.584
99986.914
99991.404
99991.366
99991.214
99990.836
99989.823
99989.104
99988.967
99988.92
99986.014
99996.94
99992.514
99964.052
99965.126
99987.966
99991.317
99995.647
99997.699
99999.635
99999.533
99998.117
99995.78
99993.543
99988.566
99985.208
99983.734
99982.944
99989.452
99989.403
99989.357
99989.512
99988.596
99986.517
99986.772
99985.046
99988.816
99986.639
99960.498
99961.766
99962.083
100000.98
100000.89
99998.244
99995.033
99992.226
99989.677
99983.794
99980.522
99979.046
99978.318
99987.091
99987.12
99987.315
99988.021
99987.307
99984.403
99983.462
99976.361
99978.666
99982.817
99956.923
99957.819
99959.296
99994.295
99989.57
99985.541
99978.619
99974.972
99974.241
99973.826
99984.488
99984.628
99984.938
99985.46
99985.414
99981.158
99966.708
99971.225
99977.805
99951.288
99951.731
99975.775
99972.057
99970.364
99970.484
99970.48
99982.2
99982.486
99982.863
99981.879
99980.161
99972.138
99962.877
99962.275
99966.739
99947.854
99947.137
99945.58
99967.172
99967.548
99968.093
99968.857
99969.197
99981.076
99981.451
99981.901
99981.496
99979.832
99961.367
99961.217
99961.073
99964.661
99948.353
99944.71
99943.27
99966.267
99966.486
99968.801
99969.785
99970.322
99982.32
99982.586
99983.002
99982.343
99982.319
99982.941
99959.437
99958.59
99960.341
99962.872
99949.706
99944.317
99968.699
99970.676
99971.839
99972.879
99973.507
99986.48
99986.423
99986.619
99987.166
99987.153
99986.393
99952.338
99954.391
99958.437
99962.23
99956.275
99952.979
99945.93
99972.834
99975.331
99976.468
99977.464
99978.139
99992.442
99992.039
99991.882
99992.23
99992.211
99992.336
99950.743
99958.848
99963.904
99963.57
99961.007
99957.736
99950.815
99977.836
99980.596
99981.822
99982.865
99983.62
99998.062
99997.476
99997.076
99997.078
99997.14
99997.398
99997.575
99950.931
99962.827
99966.566
99969.803
99976.327
99976.095
99976.315
99976.779
99977.141
99977.028
99976.594
99976.154
99975.7
99975.784
99976.898
99978.948
99983.716
99987.756
99986.493
99980.46
99974.894
99973.255
99972.255
99972.131
99970.797
99965.676
99962.694
99955.023
99983.401
99985.96
99987.288
99988.46
99989.374
100001.38
100000.88
100000.6
100000.72
100001.29
100001.99
100001.42
99970.098
99976.552
99975.815
99974.365
99973.87
99975.413
99976.155
99976.844
99977.156
99976.852
99976.594
99976.348
99976.026
99975.473
99976.754
99978.769
99982.283
99985.715
99985.416
99979.227
99973.799
99973.345
99972.936
99972.671
99971.31
99968.523
99966.697
99958.847
99989.275
99988.596
99990.902
99992.395
99993.781
99994.923
100001.66
100001.4
100001.5
100002.05
100003.01
100005.2
100005.36
99975.946
99989.881
99989.084
99988.837
99983.534
99974.477
99975.869
99979.103
99984.394
99977.05
99976.066
99977.493
99986.374
99978.837
99978.347
99975.987
99974.869
99972.969
99970.538
99962.616
99993.767
99993.005
99995.218
99996.861
99998.53
99999.956
99999.663
99999.667
100000.13
100001.14
100002.66
100006.31
100007.47
99993.045
99999.323
100004.01
99998.998
99997.514
100007.29
99974.949
99978.155
99973.311
99978.961
99979.288
99979.906
99978.516
99976.952
99976.789
99976.113
99978.304
99981.745
99984.391
99986.177
99987.473
99982.988
99982.424
99980.404
99979.019
99977.848
99977.179
99977.876
99974.313
99967.015
99997.553
99996.751
99998.817
100000.6
100002.61
100004.35
99996.812
99996.973
99997.626
99998.843
100000.67
100004.96
100007.09
100005.61
100002.31
100015.72
100018.69
100007.58
99997.831
99993.779
99994.34
100002.95
99979.452
99978.476
99977.59
99977.543
99978.537
99981.107
99983.833
99985.413
99987.185
99991.326
99987.525
99984.688
99982.851
99980.817
99980.376
99981.204
99982.253
99978.265
99973.124
100000.73
99999.768
100001.72
100003.69
100006.05
100008.06
99994.145
99994.375
99995.08
99996.298
99998.123
100001.03
100005.37
100004.27
100005.12
100015.8
100024.62
100020.73
100010.46
99999.743
99995.571
99995.578
99997.003
99985.285
99989.07
99990.918
99990.95
99990.216
99989.796
99990.852
99993.373
99995.824
99997.619
99998.014
99994.431
99990.899
99986.455
99983.28
99982.443
99984.434
99986.991
99983.684
99977.514
100002.78
100002.85
100004.07
100006.24
100008.85
100011.06
99991.969
99992.232
99992.924
99994.092
99995.82
99998.405
100002.44
100007.74
100007.59
100007.69
100010.77
100020.82
100024.74
100016.39
100014.13
99989.339
99992.164
99991.97
99991.254
99990.157
99990.208
99991.944
99994.482
99996.518
99997.356
99996.568
99994.842
99992.484
99989.943
99985.982
99984.254
99988.681
99991.948
99996.142
99981.112
100003.72
100005.3
100006.16
100008.33
100011.03
100013.27
99990.18
99990.436
99991.101
99992.2
99993.798
99996.086
99999.53
100004.45
100009.4
100011.72
100016.8
100019.75
100021.45
100016.16
100015.97
99989.197
99993.309
99993.27
99992.916
99991.766
99990.553
99990.54
99992.027
99994.171
99995.886
99996.586
99996.19
99995.067
99993.615
99990.611
99988.042
99986.374
99994.802
99997.498
100002.86
100003.63
100011.31
100019.4
100005.76
100007.52
100007.92
100009.91
100012.48
100014.57
99988.599
99988.83
99989.438
99990.45
99991.877
99993.814
99996.536
100000.75
100005.34
100010.1
100016.96
100020.5
100018.14
100016.34
100017.82
99994.302
99994.139
99994.179
99993.361
99991.941
99990.771
99990.712
99991.94
99993.762
99995.303
99996.023
99995.929
99995.232
99994.213
99990.887
99989.549
99990.204
99994.262
100000.42
100003.25
100016.77
100019.35
100020.07
100021.38
100024.82
100025.23
100006.18
100007.89
100008.97
100009.16
100010.82
100013.06
100014.85
99987.148
99987.323
99987.866
99988.794
99990.069
99991.695
99993.833
99997.207
100001.66
100007.74
100011.09
100018.31
100016.14
100014.62
100016.76
99994.899
99994.847
99994.669
99993.688
99992.265
99991.1
99990.921
99991.905
99993.493
99994.948
99995.732
99995.84
99995.373
99994.518
99991.903
99991.714
99993.666
99995.463
99991.132
100037.79
100040.69
100033.74
100024.68
100020.59
100018.98
100017.09
100014.55
100006.99
100008.92
100010.12
100009.92
100010.98
100012.7
100014.08
99985.814
99985.918
99986.409
99987.297
99988.475
99989.906
99991.661
99994.283
99998.105
100001.37
100004.34
100007.97
100005.94
100012.08
100012.43
99995.537
99995.552
99995.154
99994.087
99992.67
99991.484
99991.172
99991.927
99993.332
99994.732
99995.583
99995.836
99995.531
99994.762
99995.174
99993.138
99993.115
99994.376
99996.071
99994.007
100041.2
100036.86
100023.96
100015.51
100012.75
100011.35
100009.55
100008.96
100007.82
100009.6
100010.51
100009.83
100010.21
100011.41
100012.39
99984.604
99984.643
99985.103
99985.967
99987.086
99988.41
99989.989
99992.178
99995.233
99997.259
99999.577
99999.87
99999.276
100001.81
100002.89
99996.434
99996.399
99995.761
99994.588
99993.188
99992.006
99991.551
99992.064
99993.264
99994.582
99995.477
99995.854
99995.747
99995.122
99994.72
99993.732
99993.861
99995.693
99996.061
100021.15
100015.26
100010.69
100007.16
100005.36
100004.74
100007.04
100008.23
100007.99
100008.34
100009.28
100010.02
99983.534
99983.527
99983.975
99984.822
99985.926
99987.183
99988.717
99990.832
99993.337
99995.537
99997.766
99997.241
99997.244
99997.054
99997.413
99997.605
99997.73
99996.888
99995.611
99994.282
99993.093
99992.327
99992.31
99993.004
99994.078
99995.047
99995.661
99995.85
99995.663
99995.193
99994.187
99994.254
99995.371
100005.32
99998.124
99996.549
100002.43
100004.67
100005.09
100005.73
100006.64
100007.28
99982.632
99982.607
99983.076
99983.957
99985.093
99986.345
99987.881
99989.969
99992.15
99994.32
99995.59
99995.347
99995.965
99997.392
99998.092
99997.621
99997.966
99998.276
99998.491
99998.57
99998.566
99996.644
99995.224
99994.087
99993.248
99992.784
99992.718
99993.135
99993.852
99994.629
99995.247
99995.673
99996.062
99995.749
99994.841
99994.718
99995.028
99978.036
99987.968
99998.275
100001.06
100002.08
100003
100003.95
100004.56
99981.933
99981.935
99982.454
99983.412
99984.647
99985.927
99987.478
99989.38
99991.328
99993.17
99993.714
99993.801
99994.618
99997.531
99998.859
99998.631
99999.293
99999.585
99999.345
99998.794
99998.045
99994.02
99993.037
99992.326
99991.919
99991.959
99992.202
99992.64
99993.18
99993.614
99994.097
99994.72
99996.145
99996.145
99995.402
99995.303
99984.822
99991.409
99996.403
99998.477
99999.587
100000.6
100001.55
100002.17
99981.488
99981.574
99982.178
99983.239
99984.541
99985.856
99987.352
99989.012
99990.696
99992.026
99992.139
99992.389
99992.568
99995.52
99997.116
99998.564
99999.338
100000.06
99999.644
99998.548
99998.465
99994.825
99993.327
99992.591
99991.855
99992.013
99992.176
99992.543
99993.318
99993.694
99994.093
99995.061
99996.148
99995.938
99995.984
99996.006
99987.912
99988.122
99992.882
99995.612
99996.854
99997.757
99998.709
99999.638
100000.3
99981.352
99981.58
99982.268
99983.394
99984.725
99986.002
99987.399
99988.82
99990.188
99991.02
99991.041
99991.458
99991.886
99993.491
99995.001
99996.309
99997.971
99999.281
99999.499
99998.07
99996.388
99993.12
99992.896
99992.512
99991.844
99991.964
99992.062
99992.324
99992.684
99993.128
99993.946
99995.818
99996.496
99996.528
99996.437
99991.048
99990.466
99992.371
99993.634
99994.989
99995.705
99996.414
99997.283
99998.211
99998.935
99981.64
99981.954
99982.708
99983.868
99985.137
99986.333
99987.562
99988.822
99989.835
99990.32
99990.029
99990.011
99990.449
99993.083
99994.808
99996.192
99997.439
99997.94
99997.723
99996.827
99995.089
99993.464
99992.957
99992.755
99991.95
99991.766
99991.988
99992.379
99992.841
99993.477
99994.955
99996.487
99997.355
99997.652
99997.315
99992.196
99993.449
99993.574
99993.892
99994.461
99994.862
99995.433
99996.22
99997.155
99997.926
99982.362
99982.697
99983.476
99984.584
99985.706
99986.767
99987.853
99988.912
99989.57
99989.668
99988.995
99988.07
99986.583
99992.866
99994.989
99996.289
99997.404
99997.898
99997.779
99997.203
99995.794
99994.109
99993.299
99993.28
99992.568
99991.959
99992.174
99992.732
99993.225
99993.743
99993.942
99997.772
99998.159
99998.735
99999.045
99992.966
99993.362
99994.23
99993.929
99993.873
99994.018
99994.223
99994.694
99995.401
99996.299
99997.085
99983.389
99983.729
99984.48
99985.45
99986.375
99987.288
99988.267
99989.14
99989.602
99989.643
99989.205
99987.231
99982.649
99998.851
99998.345
99998.46
99999.063
99999.485
99999.558
99999.493
99993.599
99994.812
99994.333
99993.946
99993.692
99993.574
99993.631
99994.012
99994.656
99995.49
99996.263
99984.567
99984.916
99985.573
99986.347
99987.089
99987.885
99988.795
99989.53
99990.028
99990.483
99991.071
99990.353
99987.184
99998.567
99998.303
99998.062
99998.075
99999.669
99999.646
99999.477
99998.996
99993.396
99994.089
99994.922
99994.264
99993.828
99993.396
99993.086
99993.005
99993.278
99993.846
99994.625
99995.377
99985.773
99986.103
99986.625
99987.205
99987.826
99988.57
99989.349
99989.997
99990.587
99991.532
99992.957
99993.264
99990.967
99989.643
99997.868
99997.275
99997.279
99999.489
99998.794
99997.755
99997.126
99996.525
99993.834
99995.055
99994.712
99994.069
99993.558
99992.998
99992.534
99992.317
99992.466
99992.944
99993.674
99994.404
99986.905
99987.198
99987.6
99988.059
99988.639
99989.262
99989.856
99990.456
99991.216
99992.391
99993.971
99995.002
99993.878
99990.964
99996.875
99995.499
99994.568
99996.045
99996.882
99995.335
99994.88
99995.329
99995.777
99993.671
99994.332
99995.379
99994.584
99993.845
99993.192
99992.512
99991.916
99991.571
99991.593
99991.982
99992.66
99993.359
99987.953
99988.213
99988.548
99988.952
99989.43
99989.9
99990.402
99990.985
99991.868
99993.068
99994.471
99995.628
99995.55
99992.324
99995.04
99994.326
99993.547
99993.902
99995.139
99994.808
99995.304
99996.463
99996.849
99994.947
99994.598
99995.751
99995.312
99994.364
99993.533
99992.747
99991.951
99991.246
99990.792
99990.697
99991.005
99991.634
99992.29
99988.995
99989.234
99989.517
99989.81
99990.119
99990.483
99990.906
99991.534
99992.438
99993.555
99994.689
99995.816
99996.497
99993.758
99995.416
99994.739
99995.342
99995.23
99995.405
99995.804
99996.423
99997.259
99997.49
99996.679
99996.493
99996.356
99995.291
99994.094
99993.115
99992.209
99991.31
99990.532
99990.006
99989.827
99990.074
99990.666
99991.265
99990.09
99990.27
99990.438
99990.582
99990.773
99991.086
99991.514
99992.123
99992.939
99993.886
99994.834
99996.027
99997.238
99995.726
99993.455
99997.634
99996.235
99995.466
99995.62
99996.977
99997.411
99997.089
99997.364
99996.71
99996.104
99995.041
99993.703
99992.6
99991.582
99990.599
99989.784
99989.235
99989.014
99989.23
99989.802
99990.362
99991.201
99991.274
99991.329
99991.351
99991.461
99991.731
99992.135
99992.664
99993.335
99994.095
99994.885
99996.011
99997.65
99998.231
99994.464
99992.502
99997.69
99996.66
99996.177
99995.382
99996.672
99996.481
99995.547
99994.666
99993.223
99992.001
99990.891
99989.84
99989.02
99988.489
99988.27
99988.468
99989.038
99989.6
99992.287
99992.279
99992.232
99992.165
99992.208
99992.394
99992.705
99993.114
99993.628
99994.191
99994.833
99995.793
99997.228
99998
99997.818
99993.612
99993.498
99997.937
99997.03
99996.475
99996.829
99994.396
99994.871
99996.546
99996.473
99995.281
99994.371
99992.767
99991.382
99990.166
99989.063
99988.272
99987.78
99987.563
99987.728
99988.28
99988.85
99993.338
99993.275
99993.143
99992.994
99992.944
99993.028
99993.233
99993.507
99993.841
99994.224
99994.734
99995.48
99996.329
99996.154
99993.984
99990.931
99992.096
99994.514
99995.214
100001.73
99998.547
99996.464
99996.153
99995.435
99996.9
99997.209
99996.865
99995.373
99994.129
99992.352
99990.77
99989.451
99988.315
99987.582
99987.1
99986.834
99986.938
99987.448
99988.022
99994.276
99994.188
99993.992
99993.762
99993.63
99993.656
99993.737
99993.865
99994.046
99994.307
99994.734
99995.221
99995.327
99994.256
99991.977
99990.641
99993.465
99994.686
99996.25
99997.448
100004.48
100000.07
99996.117
99995.505
99996.174
99996.929
99998.661
99998.142
99997.44
99995.698
99993.968
99991.958
99990.173
99988.774
99987.655
99986.978
99986.445
99986.099
99986.148
99986.653
99987.275
99995.005
99994.918
99994.697
99994.407
99994.246
99994.203
99994.187
99994.215
99994.309
99994.514
99994.804
99994.909
99994.363
99992.981
99991.613
99992.086
99996.299
100000.38
100003.16
99999.963
99997.194
99996.126
100011.17
100006.84
100003.42
99997.109
99995.26
99995.879
99999.295
99999.321
99998.597
99997.822
99996.001
99993.939
99991.632
99989.594
99988.143
99987.134
99986.465
99985.869
99985.46
99985.482
99986.064
99986.799
99995.425
99995.385
99995.189
99994.911
99994.748
99994.679
99994.622
99994.6
99994.645
99994.782
99994.854
99994.519
99993.589
99992.545
99992.437
99993.786
99997.151
100000.55
100004.05
100002.58
99999.375
99998.878
100001.38
100008.72
100008.87
100009.96
100007.88
100010.82
99993.351
99998.617
100000.05
99999.327
99998.484
99997.754
99996.076
99993.93
99991.479
99989.142
99987.611
99986.766
99986.052
99985.43
99984.961
99985.008
99985.735
99986.611
99995.553
99995.593
99995.489
99995.289
99995.167
99995.121
99995.055
99995.003
99995.018
99995.057
99994.87
99994.224
99993.331
99992.922
99993.393
99994.49
99996.389
99998.583
100001.02
100001.1
100001.34
100002.68
100004.95
100007.53
100008.76
100010.02
100013.17
100012
100006.71
99993.242
99994.052
100000.82
100000.79
99999.328
99998.061
99997.121
99995.716
99993.772
99991.41
99989.003
99987.36
99986.646
99985.839
99985.156
99984.609
99984.736
99985.634
99986.615
99995.49
99995.609
99995.638
99995.569
99995.539
99995.524
99995.466
99995.403
99995.388
99995.318
99994.946
99994.248
99993.7
99993.714
99994.108
99994.745
99995.992
99997.47
99998.706
99999.308
100000.46
100002.18
100004.08
100005.47
100006.38
100006.86
100007
100006.37
100005.75
100001.68
100002.38
99993.089
99999.411
100001.97
100001.3
99999.592
99997.815
99996.328
99994.911
99993.278
99991.243
99989.057
99987.4
99986.736
99985.866
99985.056
99984.417
99984.649
99985.686
99986.717
99995.38
99995.549
99995.705
99995.787
99995.856
99995.869
99995.832
99995.778
99995.734
99995.59
99995.168
99994.626
99994.406
99994.542
99994.756
99995.197
99996.164
99997.13
99997.695
99998.194
99999.219
100000.58
100001.86
100002.74
100003.42
100003.95
100004.38
100004.49
100003.86
100002.72
100002.64
100002.7
100002.72
99996.255
99994.996
100000.16
100001.6
100001.08
99999.713
99997.896
99995.964
99994.146
99992.488
99990.808
99989.025
99987.527
99986.894
99985.976
99985.063
99984.363
99984.709
99985.837
99986.87
99995.344
99995.526
99995.765
99995.965
99996.102
99996.146
99996.139
99996.115
99996.061
99995.897
99995.531
99995.184
99995.146
99995.282
99995.429
99995.765
99996.35
99996.731
99996.865
99997.073
99997.661
99998.475
99999.275
100000.13
100001.26
100002.71
100004.18
100005.07
100005.01
100004.2
100003.57
100003.05
100002.48
100002.41
99997.439
99997.38
99998.96
100000
99999.961
99999.226
99997.903
99996.058
99993.907
99991.864
99990.181
99988.732
99987.487
99986.835
99985.861
99984.997
99984.395
99984.875
99986.064
99987.058
99995.432
99995.594
99995.86
99996.112
99996.288
99996.36
99996.393
99996.415
99996.385
99996.243
99995.964
99995.757
99995.821
99996.005
99996.164
99996.351
99996.52
99996.412
99996.162
99995.929
99995.963
99996.348
99997.101
99998.472
100000.47
100002.77
100004.7
100005.7
100005.58
100004.95
100004.55
100004.13
100003.24
100002.51
100001.88
100002.1
99999.018
99998.75
99998.399
99997.775
99998.062
99998.258
99998.116
99997.488
99996.192
99994.174
99991.806
99989.746
99988.262
99987.156
99986.357
99985.322
99984.68
99984.413
99985.101
99986.335
99987.271
99995.624
99995.756
99995.994
99996.248
99996.431
99996.513
99996.588
99996.663
99996.679
99996.582
99996.375
99996.249
99996.409
99996.727
99996.956
99997.005
99996.857
99996.427
99995.826
99995.154
99994.704
99994.869
99995.886
99997.896
100000.44
100002.82
100004.57
100005.43
100005.6
100005.46
100005.19
100004.61
100003.63
100002.63
100001.94
100001.8
100001.37
100000.38
100000.55
100000.52
99999.244
99997.541
99996.732
99996.636
99996.763
99996.706
99996.082
99994.585
99992.299
99989.851
99988.002
99986.801
99985.776
99984.666
99984.226
99984.373
99985.334
99986.624
99987.512
99995.868
99995.978
99996.162
99996.376
99996.534
99996.626
99996.731
99996.846
99996.904
99996.859
99996.713
99996.636
99996.854
99997.332
99997.706
99997.705
99997.343
99996.69
99995.789
99994.77
99994.037
99994.161
99995.484
99997.758
100000.25
100002.33
100003.86
100004.94
100005.54
100005.66
100005.32
100004.59
100003.58
100002.61
100001.85
100001.3
100001.17
100000.76
100000.58
100000.32
99999.111
99997.458
99996.108
99995.631
99995.692
99995.88
99995.784
99994.92
99993.076
99990.577
99988.314
99986.791
99985.652
99984.512
99984.144
99984.617
99985.718
99987.008
99987.857
99996.135
99996.224
99996.354
99996.499
99996.628
99996.729
99996.856
99996.995
99997.096
99997.105
99997.019
99996.955
99997.153
99997.68
99998.196
99998.298
99997.88
99997.051
99995.91
99994.621
99993.705
99993.825
99995.283
99997.52
99999.574
100001.35
100003.01
100004.46
100005.39
100005.6
100005.14
100004.23
100003.18
100002.24
100001.48
100000.92
100000.44
100000.09
99999.778
99999.377
99998.365
99996.948
99995.672
99995.102
99995.098
99995.333
99995.523
99995.193
99993.929
99991.735
99989.304
99987.509
99986.336
99985.226
99984.854
99985.495
99986.563
99987.708
99988.46
99996.44
99996.513
99996.597
99996.686
99996.771
99996.869
99997.002
99997.161
99997.298
99997.358
99997.325
99997.264
99997.38
99997.801
99998.311
99998.539
99998.234
99997.382
99996.076
99994.598
99993.507
99993.598
99995.085
99996.934
99998.626
100000.39
100002.27
100004.06
100005.24
100005.48
100004.87
100003.76
100002.59
100001.64
100000.93
100000.41
99999.982
99999.564
99999.1
99998.5
99997.609
99996.228
99995.128
99994.708
99994.808
99995.137
99995.455
99995.49
99994.767
99993.072
99990.842
99988.988
99987.829
99986.878
99986.503
99987.06
99988.018
99988.909
99989.484
99996.827
99996.885
99996.931
99996.978
99997.032
99997.111
99997.239
99997.406
99997.569
99997.671
99997.673
99997.604
99997.606
99997.817
99998.164
99998.392
99998.243
99997.52
99996.215
99994.611
99993.392
99993.433
99994.73
99996.233
99997.906
99999.721
100001.74
100003.77
100005.1
100005.34
100004.59
100003.3
100002
100001
100000.32
99999.812
99999.376
99998.9
99998.312
99997.532
99996.542
99995.357
99994.431
99994.305
99994.67
99995.183
99995.632
99995.877
99995.568
99994.411
99992.6
99990.954
99989.898
99989.178
99988.909
99989.295
99989.97
99990.597
99990.99
99997.346
99997.391
99997.41
99997.424
99997.449
99997.513
99997.633
99997.803
99997.982
99998.108
99998.125
99998.034
99997.917
99997.891
99997.98
99998.05
99997.914
99997.365
99996.224
99994.683
99993.427
99993.356
99994.361
99995.877
99997.63
99999.413
100001.44
100003.5
100004.84
100005.04
100004.2
100002.8
100001.41
100000.39
99999.723
99999.208
99998.739
99998.218
99997.55
99996.636
99995.459
99994.299
99993.666
99993.929
99994.671
99995.42
99996.024
99996.373
99996.331
99995.643
99994.337
99993.041
99992.205
99991.708
99991.577
99991.832
99992.257
99992.629
99992.861
99998.037
99998.07
99998.07
99998.061
99998.068
99998.119
99998.235
99998.406
99998.594
99998.725
99998.736
99998.61
99998.387
99998.145
99997.958
99997.802
99997.548
99997.073
99996.174
99994.867
99993.681
99993.462
99994.412
99996.217
99997.988
99999.591
100001.39
100003.2
100004.36
100004.46
100003.59
100002.22
100000.92
99999.999
99999.375
99998.86
99998.382
99997.869
99997.221
99996.344
99995.181
99993.99
99993.486
99993.965
99994.965
99995.898
99996.6
99997.004
99997.098
99996.752
99995.922
99995.028
99994.474
99994.155
99994.119
99994.315
99994.559
99994.734
99994.829
99998.905
99998.922
99998.901
99998.874
99998.867
99998.912
99999.023
99999.189
99999.367
99999.486
99999.48
99999.318
99999.014
99998.621
99998.206
99997.854
99997.484
99997.011
99996.358
99995.418
99994.46
99994.184
99995.143
99996.9
99998.502
99999.872
100001.31
100002.67
100003.49
100003.47
100002.68
100001.54
100000.49
99999.691
99999.066
99998.52
99998.03
99997.556
99997.045
99996.437
99995.663
99994.821
99994.404
99994.821
99995.756
99996.642
99997.302
99997.705
99997.851
99997.73
99997.268
99996.728
99996.405
99996.251
99996.298
99996.47
99996.605
99996.648
99996.647
99999.856
99999.854
99999.806
99999.756
99999.734
99999.765
99999.859
99999.998
100000.14
100000.24
100000.22
100000.05
99999.723
99999.294
99998.778
99998.316
99997.941
99997.516
99997.093
99996.54
99995.923
99995.652
99995.953
99996.917
99998.152
99999.409
100000.62
100001.56
100002.05
100001.95
100001.36
100000.51
99999.569
99998.658
99997.81
99997.069
99996.474
99996.028
99995.704
99995.486
99995.382
99995.431
99995.712
99996.233
99996.934
99997.616
99998.186
99998.601
99998.833
99998.872
99998.691
99998.437
99998.262
99998.177
99998.203
99998.296
99998.335
99998.3
99998.245
100000.59
100000.5
100000.44
100000.38
100000.36
100000.38
100000.44
100000.54
100000.63
100000.69
100000.67
100000.55
100000.31
100000.02
99999.573
99999.172
99998.907
99998.573
99998.278
99998.115