/*--------------------------------*- C++ -*----------------------------------*\
  =========                 |
  \\      /  F ield         | OpenFOAM: The Open Source CFD Toolbox
   \\    /   O peration     | Website:  https://openfoam.org
    \\  /    A nd           | Version:  8
     \\/     M anipulation  |
\*---------------------------------------------------------------------------*/
FoamFile
{
    version     2.0;
    format      ascii;
    class       volScalarField;
    location    "3600/air";
    object      rho;
}
// * * * * * * * * * * * * * * * * * * * * * * * * * * * * * * * * * * * * * //

dimensions      [1 -3 0 0 0 0 0];

internalField   nonuniform List<scalar> 
167754
(
1.1832962
1.1833179
1.1834021
1.1835397
1.1836979
1.1838302
1.1838253
1.1837808
1.183515
1.1830136
1.1824124
1.1818523
1.1816291
1.1817604
1.1822314
1.1828271
1.183298
1.1835286
1.1834876
1.183223
1.1826068
1.1814917
1.1804295
1.1798936
1.1798756
1.1807241
1.1820855
1.183285
1.1839057
1.1841925
1.1844211
1.1843677
1.1836168
1.1828932
1.1829556
1.1834134
1.1839076
1.1840937
1.184195
1.1842448
1.1842597
1.1841661
1.1841463
1.1841033
1.1840793
1.184049
1.184018
1.1839672
1.1838773
1.1837023
1.183437
1.1831139
1.1827676
1.1824411
1.1821741
1.1819863
1.181869
1.18181
1.1817964
1.1820617
1.182126
1.1822934
1.1825454
1.1828197
1.1829713
1.1829219
1.1824564
1.1816032
1.1804599
1.1793096
1.1787252
1.1786438
1.179375
1.1805128
1.1814376
1.1818418
1.1818722
1.1813618
1.1802362
1.1787459
1.177179
1.1758531
1.175265
1.1756415
1.1773261
1.1794565
1.1815184
1.1830924
1.1835498
1.1830143
1.1812682
1.1789286
1.1773958
1.1767348
1.1770504
1.1784372
1.1799936
1.1813187
1.1823811
1.1830373
1.1834529
1.183574
1.1836561
1.1836467
1.1835977
1.1835357
1.1834603
1.1833548
1.1831419
1.1827816
1.1822721
1.1816602
1.1810703
1.1805302
1.180106
1.1797995
1.1796042
1.1795182
1.1807933
1.1809019
1.1811496
1.1815075
1.1818494
1.1819657
1.1816694
1.180754
1.179184
1.1771918
1.1752183
1.1745734
1.1744535
1.1762065
1.1787737
1.1799539
1.1802768
1.1800828
1.1791952
1.177814
1.176094
1.1740021
1.172332
1.171854
1.1727845
1.1750517
1.177872
1.1805113
1.1822965
1.1826118
1.1811033
1.1787447
1.1756496
1.1732501
1.1718723
1.1719615
1.1726905
1.174708
1.1772878
1.1796899
1.1813906
1.1823902
1.1828152
1.1828795
1.1827041
1.1825628
1.1824821
1.1825452
1.1825965
1.1825512
1.1823176
1.1817239
1.1808754
1.179963
1.1791424
1.1784833
1.1779912
1.1776589
1.177501
1.1795622
1.1797149
1.1800492
1.1804882
1.1808782
1.1809323
1.1803606
1.1788584
1.1764579
1.173276
1.170024
1.1683925
1.1681596
1.1708517
1.1760374
1.1779901
1.178413
1.1782734
1.1773442
1.1757025
1.1754847
1.1729178
1.1691868
1.1694248
1.1710351
1.1737548
1.177167
1.1798793
1.1810489
1.1811681
1.1795779
1.1755784
1.1700869
1.1645188
1.1626887
1.1636288
1.1667548
1.1701285
1.1729453
1.1759976
1.1786314
1.1803765
1.181143
1.1812022
1.1809537
1.1809278
1.1809146
1.181129
1.1813715
1.1817528
1.1817301
1.1813602
1.1803549
1.179105
1.1779897
1.1770886
1.1764163
1.1759631
1.1757521
1.1782778
1.1784742
1.178909
1.1794974
1.1799502
1.1799438
1.1790842
1.177106
1.1739422
1.1696237
1.1652031
1.1630187
1.1626057
1.1646231
1.1704714
1.1747376
1.1753928
1.1753983
1.1768415
1.1752041
1.1733714
1.1699371
1.1678359
1.1686743
1.1712265
1.1731214
1.1765865
1.179099
1.1800541
1.1798422
1.177019
1.1720843
1.1618201
1.1556444
1.1534595
1.1537471
1.1560098
1.1624236
1.1686406
1.1726582
1.175762
1.1779403
1.1790661
1.1792327
1.1791072
1.1790709
1.1790675
1.1793809
1.1798487
1.1805767
1.1810156
1.1809137
1.1801485
1.1785025
1.1770171
1.1758568
1.1750052
1.1744668
1.1742267
1.1769211
1.1771722
1.1777045
1.1784436
1.1790326
1.1790161
1.177966
1.1756871
1.1719996
1.1671761
1.1627554
1.1609904
1.1607805
1.1612658
1.1635689
1.1693982
1.1714369
1.174618
1.1744952
1.1735714
1.1717133
1.1666982
1.1630511
1.1689779
1.1712997
1.173545
1.1764326
1.178646
1.1776644
1.1778385
1.1752306
1.1675085
1.1570883
1.1526252
1.1510548
1.1505382
1.1508099
1.1531256
1.1611722
1.1688482
1.1733093
1.1758642
1.1770867
1.1773631
1.1770163
1.1770704
1.1771579
1.1774009
1.1780219
1.1790917
1.1800471
1.1803149
1.1799229
1.1782631
1.1762591
1.174779
1.1737499
1.1730935
1.1728108
1.1754186
1.1757092
1.1763568
1.1772474
1.1780264
1.1780879
1.1770663
1.1746932
1.1708429
1.165948
1.1618212
1.1602456
1.1597993
1.1597334
1.160266
1.1629033
1.1707315
1.1716636
1.1724103
1.1723782
1.1630679
1.1608037
1.1654895
1.1726127
1.174277
1.1747398
1.175838
1.176018
1.1768236
1.1740792
1.1619276
1.1544261
1.1512449
1.1501627
1.1497851
1.1498156
1.1502331
1.1528344
1.1624278
1.1700034
1.1740437
1.1756954
1.1760431
1.1755381
1.1752967
1.175244
1.1754793
1.1759801
1.1773327
1.1786637
1.1795323
1.1795049
1.1782316
1.1757264
1.1738153
1.1725321
1.1717679
1.1714696
1.1735873
1.1738905
1.1746823
1.1758801
1.176998
1.1772327
1.176457
1.1742278
1.1703282
1.1668371
1.1616554
1.1603191
1.1597471
1.1595248
1.1593359
1.1591892
1.1627767
1.1626029
1.1594428
1.1598089
1.1644846
1.1712137
1.1720303
1.1716891
1.171187
1.1662381
1.1578686
1.1506144
1.1496408
1.1494883
1.1496401
1.1499504
1.1505512
1.153895
1.1638724
1.1707106
1.1738208
1.1747456
1.1746023
1.1738018
1.1736459
1.1737417
1.1741594
1.1754355
1.1770656
1.17841
1.1788341
1.1782299
1.1754355
1.172948
1.1712788
1.1703072
1.1699422
1.1706676
1.1708078
1.171544
1.173174
1.1752232
1.176266
1.1758333
1.1740109
1.1715019
1.1680268
1.1635752
1.1602865
1.1596701
1.1593497
1.1590668
1.1579386
1.1588138
1.1564932
1.1591121
1.164671
1.1702474
1.1656244
1.159484
1.1536882
1.1499586
1.1493837
1.1498298
1.1502979
1.1506639
1.1512961
1.1555866
1.1652498
1.1709133
1.1732239
1.1736697
1.1732367
1.1726339
1.17244
1.1726413
1.1736047
1.1754139
1.1770566
1.1779405
1.1777414
1.1757325
1.1724016
1.1697469
1.1678376
1.1668395
1.164686
1.1642287
1.1643738
1.1662218
1.1705001
1.1741358
1.1746934
1.1733577
1.1721253
1.1694889
1.1666147
1.1608235
1.1590472
1.1582157
1.1577773
1.1576153
1.1580435
1.1635715
1.1532199
1.1597894
1.1568549
1.1507426
1.1494584
1.1498485
1.1504794
1.1511146
1.152346
1.1530844
1.1574931
1.1648628
1.1697533
1.1719858
1.1724464
1.1721732
1.1719473
1.1719415
1.1724806
1.1741068
1.1758255
1.1769445
1.177024
1.1757488
1.1719778
1.1673633
1.163111
1.1601614
1.1543197
1.1530808
1.152373
1.1537064
1.1584675
1.16742
1.1715953
1.1727428
1.171359
1.1705356
1.1591548
1.1576683
1.157348
1.1570681
1.1542744
1.1511814
1.1627544
1.1505941
1.1510564
1.1512084
1.1532942
1.1544993
1.1559857
1.1610119
1.166391
1.1688922
1.1707037
1.1711653
1.1712224
1.1712964
1.1716584
1.1730255
1.1746309
1.1758481
1.1759503
1.1742987
1.167843
1.1616631
1.1561305
1.151857
1.1442018
1.1446241
1.1463622
1.1489345
1.1517191
1.1590288
1.1665162
1.1693404
1.1692092
1.1583214
1.1568217
1.157288
1.1501769
1.1514115
1.1558266
1.1557568
1.1563306
1.1595846
1.1637092
1.1668395
1.1687161
1.1701259
1.1701251
1.1703928
1.1709169
1.1721213
1.1736468
1.1744807
1.1739193
1.1675543
1.1571721
1.1519597
1.1491912
1.1476143
1.139576
1.1414963
1.1446086
1.1477981
1.1505341
1.1532657
1.160586
1.1635319
1.159964
1.1530932
1.1495197
1.1548239
1.1589124
1.1612396
1.1645252
1.1658489
1.167126
1.1687934
1.16959
1.1698393
1.1704881
1.1712612
1.1722994
1.1721962
1.1696634
1.1558872
1.1495752
1.147253
1.1469023
1.146663
1.1378052
1.1401281
1.1435846
1.1470709
1.1496097
1.149387
1.1535283
1.1572494
1.1582412
1.1515968
1.1507177
1.1592845
1.1608573
1.1679248
1.1682531
1.1692528
1.1696554
1.1705539
1.1711698
1.1703449
1.1598037
1.1467761
1.1448978
1.1457749
1.146136
1.1463057
1.1367594
1.1387573
1.1420398
1.1456653
1.1491762
1.1488237
1.1484438
1.1550677
1.1547613
1.1526991
1.1576332
1.1564704
1.1593927
1.1692024
1.1688952
1.1677956
1.1652526
1.159447
1.1457028
1.1449353
1.1458522
1.1464712
1.1466225
1.1358285
1.1375146
1.1405755
1.1442305
1.145063
1.1473321
1.1480161
1.1579503
1.1588025
1.1575003
1.1549551
1.1545161
1.159444
1.1575054
1.1543418
1.1436015
1.1442707
1.1462743
1.1469098
1.1470658
1.1349917
1.1363836
1.1391558
1.1427309
1.1442681
1.1455549
1.1597015
1.1599205
1.1589914
1.1542581
1.1543423
1.1448068
1.1446237
1.1465394
1.1472493
1.1474632
1.1341714
1.1353329
1.1378903
1.139809
1.1434528
1.1465309
1.1603093
1.1578541
1.1598191
1.156227
1.154249
1.1546265
1.1440879
1.1447836
1.1468093
1.1473438
1.14754
1.1333337
1.1342748
1.1365582
1.1390549
1.1426906
1.1622168
1.1583222
1.1561784
1.1582906
1.1544089
1.1544822
1.155469
1.1435661
1.1455181
1.1472954
1.1473126
1.1476185
1.1324258
1.1331981
1.1352217
1.1377182
1.1413994
1.1454375
1.1571716
1.1553933
1.1544127
1.1580446
1.1541661
1.154361
1.1440077
1.1470215
1.1477554
1.1477022
1.1476969
1.1315391
1.1322023
1.1340124
1.1373706
1.1400158
1.1430986
1.1570728
1.1544207
1.1532309
1.1533716
1.1556626
1.1542142
1.1544838
1.1448011
1.1475382
1.1478689
1.1475946
1.1475391
1.1304851
1.1311036
1.1328259
1.1360621
1.1388498
1.1426201
1.1537208
1.1532374
1.1523662
1.1532848
1.1538444
1.154235
1.1543952
1.1451613
1.1474018
1.1479548
1.1479133
1.1477912
1.1292745
1.129898
1.1316804
1.1348724
1.137933
1.1416977
1.1463645
1.1530323
1.1531945
1.1526792
1.1520161
1.1520199
1.1528252
1.1533894
1.1518464
1.1499515
1.1485028
1.145263
1.1424591
1.1414576
1.1408508
1.1398039
1.1394834
1.1401591
1.1423381
1.1424893
1.1416168
1.1410448
1.140447
1.1407356
1.1437807
1.1522026
1.1538672
1.1542138
1.1540425
1.1457177
1.1477676
1.1480108
1.1480091
1.1480187
1.12795
1.1286179
1.1305135
1.1337204
1.1378529
1.1408397
1.1446402
1.1526912
1.1532811
1.152524
1.1517557
1.152093
1.153246
1.1536934
1.153155
1.1513171
1.1497218
1.147811
1.1441515
1.1420413
1.1403699
1.1404803
1.1393183
1.1394648
1.1423992
1.1427402
1.1421331
1.1422505
1.1438315
1.1485055
1.1513906
1.1532613
1.1539042
1.1540519
1.1532178
1.14631
1.1465378
1.1478327
1.1480448
1.148039
1.1480521
1.1264899
1.1272653
1.1293466
1.132694
1.1368368
1.1400496
1.1431012
1.1518453
1.152981
1.1533108
1.1524635
1.1518261
1.1525383
1.1531567
1.1533621
1.1533976
1.1471159
1.1398327
1.1391306
1.1447968
1.144759
1.1526649
1.1528061
1.1534702
1.1537074
1.1535608
1.151599
1.1464285
1.1469027
1.1479585
1.1480654
1.1480552
1.1480659
1.1247924
1.1257208
1.1280208
1.1315379
1.135757
1.139217
1.1426936
1.1524858
1.1527392
1.1529112
1.1528588
1.1521082
1.1522949
1.1537051
1.1532815
1.1555127
1.1548955
1.1551557
1.1536894
1.1502427
1.1469061
1.1432484
1.1404257
1.1385864
1.1378247
1.1377342
1.1415501
1.1468662
1.1474675
1.1492941
1.151548
1.1523918
1.153073
1.1532459
1.1529192
1.1525813
1.1489468
1.145799
1.1469327
1.1479457
1.1480255
1.1480212
1.1480254
1.1230741
1.1241215
1.1265953
1.1303376
1.1347045
1.1381547
1.1415892
1.1450953
1.1515023
1.1526139
1.152318
1.1513761
1.1510056
1.1510259
1.1517311
1.1531278
1.1533172
1.1498938
1.1460994
1.1425489
1.140074
1.1385305
1.1378449
1.1377777
1.1406408
1.1457689
1.1470957
1.1493625
1.1512247
1.1523341
1.1524173
1.1521832
1.1517129
1.1504525
1.1468601
1.1458774
1.1469127
1.1478051
1.1479058
1.1479174
1.1478433
1.1216204
1.1227284
1.125331
1.1291814
1.1335504
1.1376346
1.1403281
1.1420582
1.1508162
1.1508873
1.1515831
1.1512489
1.1507086
1.1507338
1.1521078
1.1528344
1.1533691
1.1569117
1.1551813
1.1521118
1.149208
1.1462185
1.1433274
1.1409972
1.1395256
1.1391136
1.1397516
1.1427513
1.1456958
1.1463354
1.1510609
1.1508873
1.1502208
1.1497718
1.1491091
1.1482248
1.1470408
1.1466283
1.1473097
1.1475837
1.1475455
1.1474939
1.1474482
1.1204164
1.1215679
1.1241516
1.1280196
1.132361
1.1363922
1.139618
1.1409734
1.1406955
1.1489036
1.1490022
1.1497322
1.150059
1.1501013
1.1504578
1.1550926
1.1529779
1.1493696
1.1474159
1.1452877
1.1433568
1.1417475
1.1405055
1.1401119
1.1407131
1.1431108
1.1446143
1.1449298
1.1495501
1.1482888
1.1480961
1.1482402
1.1477972
1.14774
1.1476422
1.1468462
1.1470797
1.1471898
1.1469187
1.1469233
1.1469318
1.1194403
1.1205262
1.1230369
1.1267742
1.1310046
1.1350035
1.1382938
1.140344
1.1400824
1.1442753
1.1475949
1.1488067
1.1490047
1.1494302
1.1503523
1.1576217
1.1526538
1.1492302
1.1478624
1.1461635
1.1442274
1.1424982
1.1411086
1.1399811
1.1397121
1.1399691
1.1412995
1.1425947
1.1428554
1.1481711
1.145923
1.1460554
1.1467338
1.1469325
1.1477852
1.1481894
1.1488322
1.1499691
1.1471986
1.1466673
1.1464868
1.1462049
1.1462726
1.1463446
1.1185772
1.1196061
1.1219595
1.1255477
1.129625
1.1335977
1.1369403
1.1390578
1.1395809
1.1429318
1.1466057
1.1479022
1.1480541
1.1484988
1.1497282
1.1521516
1.1484657
1.147638
1.1463017
1.1446398
1.142899
1.1413567
1.1401554
1.1391616
1.1390125
1.139122
1.1397268
1.1404973
1.1407327
1.1468135
1.1426198
1.1440119
1.1452302
1.145605
1.1476026
1.1486893
1.1491204
1.1492773
1.1491985
1.1489684
1.1503551
1.15007
1.1472943
1.1459918
1.1457844
1.1454804
1.1455867
1.1457153
1.1177368
1.1187021
1.1208043
1.1241676
1.128138
1.1320234
1.1353565
1.137728
1.1394742
1.1418897
1.1462134
1.147307
1.1471654
1.1479313
1.14908
1.1490305
1.1465619
1.1458134
1.1445673
1.1430145
1.1414424
1.140135
1.1391458
1.1383156
1.1382644
1.1383245
1.1386847
1.1391124
1.1393533
1.1442892
1.139127
1.1426083
1.1442431
1.145285
1.1511658
1.1496993
1.149522
1.1490997
1.1481885
1.1472158
1.1454321
1.1466196
1.1504125
1.1473389
1.1456335
1.1450413
1.1448825
1.144923
1.1450542
1.1169839
1.1178232
1.1197059
1.1229282
1.1267307
1.1305436
1.1337694
1.1358474
1.139313
1.1420376
1.1479764
1.1483721
1.1483028
1.1479154
1.1495209
1.1471757
1.1449828
1.1441372
1.1429087
1.1414765
1.1400575
1.1389742
1.1381376
1.1375211
1.1375488
1.1376018
1.1378706
1.1382242
1.1384256
1.1385404
1.1387653
1.1371198
1.1399862
1.1425597
1.1463844
1.1509674
1.1478242
1.1438725
1.1432857
1.1406454
1.1394178
1.1398211
1.1442371
1.1507881
1.1487805
1.1455133
1.1443841
1.1441927
1.144228
1.1443554
1.1163263
1.1170197
1.1187106
1.1217287
1.1254175
1.1291276
1.1324738
1.1356863
1.1393768
1.1445846
1.1510079
1.1516063
1.1501655
1.1503157
1.151421
1.1460473
1.14384
1.1429006
1.1416789
1.1403328
1.1389973
1.138019
1.1372454
1.1368352
1.1368647
1.1368274
1.1370943
1.1374286
1.1375764
1.1370401
1.1369889
1.1363045
1.1393034
1.1413194
1.136335
1.1346449
1.1346931
1.1368799
1.1393615
1.1501808
1.1489833
1.1457746
1.1439219
1.1435312
1.1435409
1.143659
1.1156856
1.1163097
1.1177763
1.1205773
1.1242856
1.1279513
1.1313655
1.1355689
1.1393142
1.1485023
1.1527279
1.1538261
1.1519274
1.1506231
1.1533918
1.1450728
1.1435402
1.1423105
1.1410996
1.1398225
1.1385549
1.137452
1.1366218
1.1361107
1.1360242
1.1361302
1.1362176
1.1364312
1.1366052
1.1362407
1.136234
1.1358936
1.1371131
1.1420293
1.1410399
1.1497724
1.1489869
1.1457409
1.1435449
1.1429408
1.142898
1.1429794
1.1151191
1.115555
1.1169304
1.1196679
1.1233339
1.1270781
1.1307919
1.1356281
1.1402936
1.1502064
1.1533729
1.1537541
1.1523911
1.1508464
1.1526423
1.1504246
1.1484299
1.1469198
1.1454579
1.1439516
1.1429331
1.141645
1.1404239
1.1392301
1.138006
1.1368159
1.1359259
1.1355561
1.1353637
1.1352929
1.1353619
1.1353488
1.1356246
1.1354788
1.1352953
1.1354885
1.1372277
1.1471692
1.149888
1.1486815
1.1455325
1.1431589
1.1424184
1.1423109
1.1423399
1.1145236
1.1149157
1.1161187
1.1187387
1.1226327
1.1264565
1.1311337
1.1354016
1.1427144
1.1509015
1.1531473
1.151693
1.150932
1.1499501
1.1489456
1.1472613
1.1460129
1.1448997
1.1437078
1.1425998
1.1417055
1.1419113
1.1415839
1.1406687
1.1399606
1.1393906
1.1389228
1.1385969
1.138512
1.1378736
1.1368974
1.1356753
1.1347306
1.1347574
1.1348229
1.1354686
1.1497208
1.1496879
1.1482371
1.1450927
1.1427112
1.1419249
1.1417451
1.1417323
1.1140294
1.1142981
1.115399
1.1180498
1.1220727
1.1266734
1.1310096
1.1365586
1.1457802
1.15062
1.1512827
1.1489471
1.1478032
1.1460416
1.1445772
1.1434744
1.1434445
1.1426272
1.141781
1.1411495
1.1406375
1.1410785
1.1425113
1.1434567
1.1416712
1.1409835
1.1402955
1.1393592
1.1404434
1.1390222
1.1364836
1.1338972
1.1339006
1.1342865
1.1349645
1.1381303
1.1504408
1.1499199
1.1492975
1.1475654
1.1443774
1.1421849
1.1414149
1.141194
1.1411573
1.1134859
1.1138863
1.1149604
1.1174071
1.1219138
1.1264611
1.1316757
1.1382755
1.1472602
1.1496194
1.1476459
1.1462705
1.1438214
1.1418562
1.1411146
1.14039
1.1394989
1.1386483
1.1388144
1.1392802
1.1396765
1.141801
1.1433876
1.1451009
1.142095
1.1408348
1.1397213
1.1401021
1.1407054
1.1377398
1.1357674
1.1340024
1.1346485
1.1352056
1.1364108
1.1513743
1.1492944
1.1488894
1.148663
1.1466182
1.1435316
1.1416166
1.1408948
1.1406607
1.1406022
1.1130557
1.1135792
1.114551
1.1172082
1.1219859
1.12726
1.1322913
1.1412584
1.1471101
1.1477364
1.1439897
1.1418904
1.1384637
1.1369345
1.1364439
1.1362905
1.1362257
1.1359275
1.1362056
1.1372682
1.1386096
1.1397935
1.1415481
1.1422771
1.1389365
1.1388338
1.1392926
1.1393542
1.1382651
1.1373071
1.1371348
1.1370888
1.1377208
1.1399884
1.1461124
1.1480756
1.1478807
1.1483338
1.1478166
1.1455339
1.1426567
1.1410135
1.1403495
1.1401084
1.1400318
1.1127743
1.1132867
1.1143302
1.1171674
1.1220938
1.1275687
1.1341776
1.1428605
1.1458692
1.1445257
1.1409539
1.1385212
1.1380935
1.1391725
1.1397341
1.1401474
1.1387404
1.1379724
1.1377885
1.1383473
1.139751
1.1427206
1.1466957
1.149518
1.1459395
1.1432734
1.1437293
1.146205
1.1465131
1.145457
1.1424297
1.1410442
1.1423681
1.1450708
1.1478671
1.1476635
1.1472892
1.1475269
1.1478064
1.1468812
1.1444752
1.1418146
1.1403734
1.1397234
1.1394486
1.1393426
1.1126228
1.1130864
1.1143136
1.1173299
1.1226266
1.1289012
1.1365927
1.1429038
1.1439246
1.1422692
1.1400872
1.1386813
1.1388762
1.14298
1.1427484
1.1440295
1.1452763
1.1460632
1.1471215
1.1510198
1.1444761
1.1461909
1.1470981
1.1472577
1.1459615
1.1433976
1.1409684
1.139659
1.1389614
1.1385989
1.1384511
1.1125064
1.1130287
1.1143965
1.1180009
1.1242645
1.1310239
1.1387696
1.1422344
1.142474
1.1405393
1.1393737
1.1386835
1.1377734
1.1467115
1.1430911
1.1436015
1.145936
1.146057
1.1461768
1.1474061
1.1485708
1.1410143
1.1443452
1.1460288
1.1467548
1.1467287
1.1450572
1.1423607
1.1400765
1.1387891
1.1379593
1.1374927
1.1372917
1.112547
1.1130841
1.1148538
1.1196084
1.1270197
1.1344281
1.1396106
1.1409008
1.1399847
1.1388418
1.1378199
1.1372896
1.1358203
1.1370858
1.143624
1.1435424
1.1438613
1.1476227
1.1460027
1.1464289
1.1483781
1.148421
1.1393537
1.1439965
1.1458849
1.1464701
1.1461713
1.1441573
1.1412929
1.1390558
1.1376532
1.1366429
1.1360842
1.1358374
1.1127677
1.1135753
1.1164908
1.1231709
1.1312349
1.1365305
1.1384492
1.1383246
1.1374113
1.136792
1.1357279
1.1341902
1.1333422
1.1334463
1.1438231
1.1434782
1.1438563
1.1448162
1.1456635
1.1453609
1.1450317
1.1415321
1.1396291
1.133966
1.1394921
1.144161
1.1457363
1.1461977
1.1455437
1.1431243
1.1401367
1.137825
1.1362003
1.1350151
1.1343912
1.134079
1.1134321
1.1152946
1.1202557
1.1278333
1.1337508
1.1362561
1.1367759
1.1356575
1.1351041
1.1344275
1.1333997
1.1318492
1.1311315
1.1305019
1.1432091
1.1428791
1.1435187
1.143833
1.1442669
1.1404226
1.1373667
1.1347433
1.1374358
1.1297135
1.1341636
1.1410962
1.1443109
1.1455874
1.1458674
1.1448279
1.1420329
1.1388674
1.1363132
1.1344258
1.1330829
1.1324202
1.1321301
1.1159356
1.1193887
1.1253448
1.1307945
1.1335128
1.1342621
1.1333546
1.1328704
1.1326105
1.1320838
1.1310857
1.1297101
1.1290463
1.1280111
1.1416269
1.1428312
1.1433106
1.1458248
1.1422974
1.1370254
1.1331935
1.132153
1.1327946
1.126774
1.1351887
1.1418116
1.1443144
1.1453775
1.1454629
1.1440361
1.1408265
1.1373557
1.1345105
1.1323874
1.130984
1.1303521
1.1300504
1.1197844
1.123734
1.128157
1.1310399
1.1320442
1.1320802
1.1316412
1.1310567
1.1305385
1.1298556
1.1289822
1.1280701
1.1274712
1.1266196
1.1279652
1.1477263
1.1417939
1.142559
1.1429404
1.1345188
1.1313399
1.1295249
1.1327057
1.1353194
1.1418132
1.1441895
1.145104
1.1450566
1.1431198
1.1394639
1.1356107
1.1324455
1.1301302
1.1288422
1.1281654
1.1279218
1.1226498
1.125618
1.1287619
1.1300669
1.1302666
1.1301795
1.1300799
1.129378
1.128891
1.1282941
1.1278351
1.1276443
1.1273258
1.1268454
1.125024
1.1279347
1.1460024
1.1443431
1.1443316
1.1325344
1.1335785
1.1352869
1.1411389
1.1438372
1.1447364
1.1444778
1.1421675
1.1380007
1.1336395
1.1302049
1.1278534
1.1265908
1.1260608
1.1258174
1.1234504
1.1260098
1.1279813
1.128549
1.1285982
1.1285422
1.1285746
1.1283333
1.1281874
1.127734
1.1279108
1.1278471
1.1278114
1.1278618
1.1261717
1.1247196
1.1252141
1.1459173
1.1455151
1.1456108
1.1472535
1.135164
1.1344889
1.1344484
1.1353383
1.1399519
1.1432254
1.1443173
1.1438949
1.141106
1.1363843
1.1315492
1.1278467
1.1255142
1.1241861
1.1236575
1.1232784
1.1235059
1.1254797
1.1266939
1.1268853
1.1268184
1.1266032
1.1272067
1.1276797
1.1279827
1.1276937
1.1279269
1.128133
1.1284702
1.1285731
1.1282603
1.1269083
1.1252253
1.1385985
1.1488434
1.1463357
1.1450643
1.1460817
1.1468447
1.135591
1.135445
1.1350498
1.1353935
1.1386583
1.141784
1.1434899
1.1431744
1.1400778
1.1347535
1.1294544
1.1253914
1.1227472
1.1215024
1.1205209
1.1203295
1.1230098
1.1247501
1.1253573
1.1253742
1.1252412
1.1262635
1.1269723
1.1275234
1.1278494
1.1279565
1.1284241
1.1287705
1.1289941
1.1290477
1.1287146
1.1274004
1.1265793
1.1296764
1.1407885
1.1457122
1.1450626
1.1460893
1.1474796
1.1497506
1.1372679
1.1362617
1.135923
1.1354856
1.1356052
1.1375387
1.1398733
1.1420011
1.1420742
1.1392609
1.1332797
1.12726
1.1226035
1.1195852
1.1187999
1.1180839
1.1180854
1.1229016
1.1240265
1.1244059
1.1242814
1.1251702
1.126246
1.1270705
1.1277351
1.1281883
1.1286651
1.1290875
1.1293434
1.1294275
1.1293376
1.1288574
1.1277865
1.1268756
1.1338073
1.1420346
1.1443477
1.1442018
1.1471088
1.1453217
1.1465312
1.1471792
1.148043
1.1411693
1.1371105
1.1370103
1.1363547
1.1358734
1.1358346
1.1367594
1.1383506
1.139641
1.1403156
1.1383032
1.132184
1.1248431
1.1196471
1.1174789
1.1171089
1.1169863
1.1170369
1.1225027
1.1233533
1.1235617
1.1240478
1.1253282
1.1265641
1.1276137
1.1283858
1.1289294
1.1293611
1.1296408
1.1297484
1.1297218
1.1294526
1.1289975
1.1278566
1.1297157
1.1380588
1.1423623
1.143359
1.1437928
1.1440941
1.144506
1.1460843
1.1480537
1.1485554
1.1496791
1.1516382
1.1385804
1.1386974
1.137882
1.137139
1.1364732
1.1361367
1.1365339
1.1373093
1.1380974
1.1380657
1.1365714
1.1310727
1.1223599
1.1175157
1.1165874
1.1164399
1.1165012
1.1165835
1.121986
1.1230126
1.1235355
1.1244111
1.1257537
1.127469
1.1284749
1.1291068
1.1295622
1.1298768
1.12999
1.129972
1.1298121
1.1294726
1.129248
1.1297004
1.132808
1.14074
1.1428114
1.1436219
1.1441769
1.1451625
1.1457957
1.1482812
1.1498129
1.1508151
1.1509758
1.1515156
1.1513201
1.1423889
1.1398748
1.1397155
1.1387207
1.1379086
1.1372702
1.1366852
1.1365876
1.1368475
1.1369961
1.1366512
1.1356149
1.1313332
1.1207864
1.116731
1.1162437
1.1160639
1.1162586
1.1164036
1.1214699
1.1226507
1.1236183
1.1246303
1.1266871
1.1283688
1.129138
1.1296515
1.130041
1.1302226
1.1302548
1.1301484
1.1299936
1.129671
1.1295595
1.1313384
1.1365631
1.1419649
1.1433592
1.1442065
1.145225
1.1466765
1.1483586
1.1500949
1.1515396
1.1526673
1.1534812
1.1539031
1.1531232
1.1522085
1.1532594
1.1417116
1.1425235
1.1408088
1.1395508
1.1385965
1.1378596
1.137233
1.136756
1.1367762
1.1367108
1.135871
1.134961
1.131006
1.1202033
1.116585
1.1161534
1.1160238
1.1161859
1.11633
1.1211242
1.1223064
1.1237487
1.1251638
1.1274947
1.1289535
1.1295644
1.1300061
1.1303299
1.1304489
1.1304223
1.1302869
1.1301735
1.1302525
1.1313903
1.1338938
1.1392114
1.1427624
1.1439744
1.1450312
1.1465231
1.14829
1.1499921
1.1516799
1.1530916
1.1541437
1.1548324
1.1554993
1.1559315
1.1552496
1.156263
1.1560756
1.1591008
1.1517435
1.1436412
1.1443979
1.1422361
1.1407386
1.1394862
1.1384737
1.1377356
1.1371402
1.1368428
1.1365317
1.1359026
1.1344683
1.1307337
1.1201865
1.1167601
1.1161619
1.1162729
1.1162448
1.1163849
1.1212605
1.1222926
1.1238911
1.1258378
1.1281103
1.129316
1.1298235
1.1302305
1.1305046
1.1305934
1.1305263
1.1303694
1.1304489
1.1314015
1.1332758
1.1362113
1.1409279
1.1434707
1.1447399
1.146203
1.1480418
1.1498107
1.1513976
1.1528889
1.1540908
1.155514
1.1571718
1.1595751
1.1622657
1.1638279
1.1630384
1.1615312
1.1619918
1.1641633
1.1489509
1.1462245
1.1462169
1.144231
1.1423054
1.1407547
1.1394822
1.1384147
1.1375685
1.1370232
1.1365912
1.1359236
1.1348986
1.1315687
1.1208849
1.1170835
1.1163928
1.116529
1.1165193
1.1165886
1.1222193
1.1228729
1.1246396
1.1266471
1.128716
1.1296546
1.1300651
1.1303947
1.1306692
1.1307716
1.130768
1.1310238
1.1318629
1.1336984
1.1355127
1.1381665
1.1420948
1.1442793
1.1457231
1.1474893
1.1494588
1.1510479
1.1523247
1.1535159
1.1553035
1.1583443
1.1624286
1.1664896
1.1677995
1.1677568
1.1668633
1.1660344
1.1661237
1.166391
1.1674014
1.1683512
1.1668165
1.1508558
1.1467826
1.1472782
1.1461059
1.1442436
1.1424177
1.1408347
1.1394709
1.1383599
1.1374279
1.1367593
1.1359036
1.1347115
1.1318046
1.1221382
1.117717
1.1171933
1.1170182
1.1169409
1.1169458
1.1241632
1.1242771
1.1255685
1.127593
1.1294145
1.1301117
1.1304579
1.1307259
1.130963
1.1311434
1.1312883
1.1317963
1.1337977
1.1360741
1.1376815
1.1398953
1.1430351
1.1451173
1.1466928
1.1485547
1.1504264
1.1517986
1.1530482
1.1555138
1.1596418
1.1650705
1.1693929
1.1705847
1.1708589
1.1708394
1.1704583
1.1699433
1.1697987
1.1698076
1.1700057
1.1698264
1.1697376
1.1697526
1.1689207
1.1558663
1.1480057
1.1478565
1.1472153
1.1459272
1.1441914
1.1424539
1.1408615
1.1394678
1.1382736
1.1372437
1.1358322
1.1351655
1.1325144
1.1245798
1.1195042
1.118141
1.1177634
1.1175418
1.1175058
1.1269031
1.1266623
1.1271675
1.1288219
1.1302007
1.1308607
1.1311395
1.1312913
1.1314264
1.1316145
1.1319968
1.133012
1.1352332
1.1377907
1.1395375
1.1412906
1.1437076
1.1458235
1.1475341
1.1494021
1.1511437
1.1526709
1.1553262
1.1601197
1.1673655
1.1712858
1.1720237
1.1722584
1.1725914
1.1729394
1.1731117
1.1731121
1.1731923
1.1731973
1.173328
1.1732071
1.172412
1.1716371
1.1709342
1.1646662
1.1512845
1.1483448
1.1479199
1.1470174
1.1456243
1.1440038
1.1423438
1.1407738
1.1393652
1.1381991
1.1364276
1.1350204
1.1330701
1.1280327
1.1227695
1.1204343
1.1190916
1.1184915
1.1182687
1.1300584
1.1295344
1.1294294
1.130168
1.1312166
1.1317158
1.1320919
1.1321768
1.1323499
1.1326027
1.1330075
1.1338749
1.1355413
1.1379429
1.1404259
1.1427096
1.1448388
1.1464302
1.1482272
1.1500905
1.1519681
1.1543674
1.1597434
1.1691402
1.1729232
1.1733115
1.1733154
1.1733544
1.1737018
1.1742065
1.1747181
1.1751779
1.1755852
1.1759784
1.1763755
1.1767316
1.1765858
1.1762129
1.1751959
1.1712684
1.1596191
1.1508888
1.1486936
1.1478427
1.1467027
1.1453021
1.1437516
1.1421448
1.1406046
1.1393139
1.1371133
1.1354175
1.1340375
1.1298693
1.1258312
1.123476
1.1213083
1.1197558
1.1191685
1.133028
1.1325494
1.1321059
1.1321065
1.132479
1.1328897
1.1331145
1.1332714
1.1334542
1.1337146
1.1341093
1.1347394
1.1357408
1.137383
1.1397842
1.1426046
1.1450311
1.1471404
1.1486597
1.1508356
1.1533926
1.1585843
1.1693662
1.1748467
1.1752923
1.1747777
1.17439
1.174365
1.1746854
1.1752449
1.1759105
1.1766153
1.1773231
1.1780452
1.1788207
1.1795471
1.180137
1.1798863
1.179211
1.1768575
1.1702023
1.1561518
1.1498148
1.1484
1.1474811
1.14631
1.1449458
1.1434054
1.1418816
1.1402945
1.138495
1.1356845
1.1342808
1.1304766
1.1271684
1.1255541
1.1236409
1.1212681
1.1201181
1.1355321
1.1351586
1.1346003
1.1342493
1.1341835
1.1342279
1.1343099
1.1344116
1.1345599
1.1347963
1.1351507
1.1356319
1.1363525
1.137369
1.1389314
1.1412274
1.144251
1.1469286
1.149271
1.151503
1.1558172
1.1653491
1.1759308
1.1775313
1.1773476
1.1763272
1.1756265
1.1755006
1.1757437
1.1763416
1.1770667
1.177909
1.1788042
1.1797699
1.1807434
1.1817425
1.1824273
1.1823347
1.1815524
1.1793783
1.1748068
1.1644717
1.1538925
1.1495279
1.1481319
1.1470875
1.1458976
1.1445107
1.1430708
1.1413116
1.139308
1.1364264
1.1343358
1.1312414
1.1281925
1.1265753
1.1248595
1.12255
1.1210494
1.1374414
1.1371865
1.1366511
1.1361191
1.1357402
1.1355186
1.13542
1.1354139
1.1354777
1.1356654
1.135992
1.1364671
1.1371039
1.1379229
1.1390316
1.1405773
1.1427522
1.1457429
1.1488783
1.1525151
1.1591693
1.1706106
1.177206
1.1789989
1.1790557
1.178029
1.176998
1.1767736
1.1769818
1.1775547
1.1783312
1.1792624
1.180271
1.1813447
1.1824902
1.183467
1.1839455
1.1836778
1.1822715
1.1790152
1.1735949
1.1657788
1.1564991
1.150919
1.1488206
1.1477308
1.1466236
1.1454043
1.1440747
1.1423491
1.1401994
1.137189
1.1348788
1.1321412
1.1292311
1.1268173
1.1252247
1.1233316
1.1218231
1.1387602
1.1386129
1.1381412
1.1375597
1.1370232
1.1366051
1.1363246
1.1361887
1.1361826
1.136327
1.1366337
1.1371151
1.1377742
1.1386191
1.1397744
1.1411257
1.1425408
1.1446696
1.1476309
1.1517159
1.158312
1.1681102
1.1756094
1.1798145
1.1805575
1.1797383
1.1786205
1.1783198
1.1784528
1.1790401
1.1798396
1.1808055
1.1818871
1.1830354
1.1841062
1.1848793
1.1851269
1.184644
1.182873
1.1791476
1.1730083
1.1645307
1.1560996
1.1512748
1.1492157
1.1481957
1.1472006
1.1460309
1.1447075
1.1430034
1.1409688
1.1376185
1.1353583
1.1323715
1.1292644
1.1267053
1.1252273
1.1237162
1.1224119
1.1395934
1.1395241
1.13911
1.1385254
1.137916
1.1373813
1.1369769
1.136735
1.1366668
1.1367745
1.1370721
1.1375823
1.1383151
1.1393132
1.1407015
1.1424741
1.143848
1.1450799
1.1472844
1.1507221
1.1564039
1.1645814
1.1747795
1.1808187
1.1822872
1.1816121
1.1805894
1.1802513
1.1803368
1.1808508
1.1816606
1.1826331
1.1837036
1.1847553
1.1856147
1.1861439
1.1861881
1.1857111
1.1842853
1.1814043
1.1762121
1.1679691
1.1582992
1.1520307
1.1495904
1.1485496
1.1476602
1.1465796
1.1452587
1.1438283
1.14139
1.1381094
1.1356968
1.1325414
1.1292674
1.1268278
1.1252374
1.1238084
1.1228342
1.1399364
1.1399303
1.1395744
1.1390154
1.1383878
1.1378006
1.1373284
1.1370196
1.1369024
1.1369865
1.1372884
1.1378389
1.1386857
1.1399882
1.1420528
1.1454905
1.1471203
1.1483886
1.1491355
1.1521479
1.1582414
1.1689406
1.1786436
1.1835938
1.1845675
1.1840058
1.1831687
1.1826785
1.1826922
1.1831227
1.1838355
1.1847863
1.1856727
1.1864276
1.18695
1.1872101
1.1872021
1.1869067
1.1861148
1.1845375
1.1813876
1.1754756
1.1661307
1.1558461
1.1505607
1.1488687
1.1479457
1.1469087
1.1456812
1.1441152
1.1417131
1.1386337
1.1358518
1.1322559
1.1288325
1.1265647
1.1252022
1.1237746
1.1230553
1.1399119
1.1399453
1.1396327
1.1391035
1.1384854
1.1378881
1.1373936
1.1370582
1.1369194
1.1369958
1.1373088
1.1378953
1.13886
1.1406434
1.1447469
1.1557035
1.1534391