/*--------------------------------*- C++ -*----------------------------------*\
  =========                 |
  \\      /  F ield         | OpenFOAM: The Open Source CFD Toolbox
   \\    /   O peration     | Website:  https://openfoam.org
    \\  /    A nd           | Version:  8
     \\/     M anipulation  |
\*---------------------------------------------------------------------------*/
FoamFile
{
    version     2.0;
    format      ascii;
    class       volScalarField;
    location    "3600/air";
    object      T;
}
// * * * * * * * * * * * * * * * * * * * * * * * * * * * * * * * * * * * * * //

dimensions      [0 0 0 1 0 0 0];

internalField   nonuniform List<scalar> 
167754
(
298.34814
298.34204
298.31833
298.27959
298.23506
298.1978
298.19918
298.21171
298.28653
298.42771
298.59697
298.75465
298.8175
298.78053
298.64791
298.48021
298.34762
298.28272
298.29427
298.36876
298.54224
298.85616
299.1552
299.30607
299.31115
299.07226
298.689
298.3513
298.17654
298.09581
298.03143
298.04647
298.25788
298.46159
298.44402
298.31514
298.17602
298.12362
298.0951
298.08108
298.07687
298.10324
298.10881
298.12092
298.12766
298.13621
298.14492
298.15923
298.18455
298.23382
298.30851
298.39947
298.49695
298.58888
298.66405
298.71691
298.74995
298.76656
298.77037
298.69568
298.6776
298.63046
298.55951
298.48231
298.4396
298.45353
298.58458
298.82478
299.14664
299.47049
299.63502
299.65794
299.45208
299.13177
298.87139
298.75761
298.74903
298.89273
299.20963
299.6292
300.07033
300.44362
300.60919
300.50318
300.02891
299.42913
298.84864
298.40552
298.27674
298.42751
298.91909
299.57776
300.00929
300.19538
300.10652
299.71609
299.27793
298.90486
298.60577
298.42102
298.30401
298.26993
298.24683
298.24948
298.26325
298.28071
298.30194
298.33165
298.39158
298.49302
298.63646
298.80872
298.9748
299.12687
299.24629
299.33258
299.38757
299.41177
299.05279
299.02222
298.95249
298.85171
298.75547
298.72271
298.80614
299.06384
299.50587
300.06672
300.62234
300.80388
300.83764
300.34411
299.62137
299.28911
299.19821
299.2528
299.50272
299.89155
300.3758
300.96473
301.43492
301.56949
301.3075
300.66923
299.87522
299.13218
298.6296
298.54081
298.96552
299.62954
300.5009
301.17644
301.56433
301.53922
301.33399
300.76599
300.03971
299.36344
298.88462
298.60321
298.48355
298.46547
298.51484
298.55462
298.57734
298.55956
298.54512
298.55787
298.62365
298.7908
299.02969
299.28654
299.51758
299.70312
299.84167
299.93521
299.97967
299.39938
299.35639
299.26226
299.13867
299.02889
299.01367
299.17461
299.59752
300.27333
301.16916
302.08469
302.54401
302.60956
301.85166
300.39173
299.84196
299.72292
299.76222
300.02383
300.48602
300.54733
301.26999
302.32039
302.25337
301.80003
301.03435
300.07371
299.3101
298.98082
298.94728
299.39496
300.52095
302.06697
303.63457
304.1498
303.88514
303.00507
302.05527
301.26225
300.40293
299.66142
299.17013
298.95434
298.93768
299.00763
299.01493
299.01864
298.95829
298.88999
298.78265
298.78906
298.8932
299.1762
299.52808
299.8421
300.09578
300.28505
300.41265
300.47204
299.76097
299.70568
299.58328
299.41761
299.29014
299.29196
299.53394
300.09087
300.9816
302.19737
303.44192
304.0569
304.17318
303.60522
301.95873
300.75766
300.57321
300.57164
300.16535
300.62632
301.1423
302.10914
302.7007
302.46466
301.74615
301.21266
300.23714
299.52978
299.26088
299.32056
300.11538
301.50465
304.39433
306.13299
306.74811
306.66713
306.03011
304.22443
302.47415
301.34306
300.46927
299.856
299.53906
299.49214
299.52747
299.53771
299.53866
299.45041
299.31871
299.11377
298.9902
299.01888
299.23432
299.69771
300.1159
300.44256
300.68231
300.83389
300.90149
300.14295
300.07223
299.92238
299.7143
299.54847
299.55313
299.84877
300.49035
301.52849
302.88646
304.13102
304.62792
304.68702
304.55039
303.90199
302.26086
301.6869
300.79134
300.82591
301.08597
301.6091
303.02099
304.04779
302.37919
301.72553
301.0934
300.28046
299.65733
299.93368
299.88466
300.61887
302.79287
305.72649
306.98301
307.4251
307.57055
307.49406
306.84211
304.57676
302.41572
301.15978
300.44047
300.0963
300.0185
300.11614
300.10091
300.07626
300.00784
299.83303
299.53184
299.26288
299.18748
299.29783
299.76511
300.3293
300.746
301.03574
301.22053
301.3001
300.56592
300.48411
300.30179
300.05106
299.83176
299.81445
300.10206
300.77016
301.85413
303.23221
304.39402
304.83761
304.96327
304.9818
304.83187
304.08937
301.88551
301.6231
301.41287
301.4219
304.04306
304.6805
303.36128
301.35589
300.88732
300.75703
300.44785
300.3972
300.17037
300.94303
304.36409
306.47599
307.37159
307.67625
307.78256
307.77399
307.65645
306.92411
304.22325
302.09049
300.95303
300.48801
300.39012
300.53229
300.60026
300.61509
300.54883
300.40786
300.02707
299.65233
299.4078
299.4155
299.774
300.47927
301.01731
301.37858
301.59373
301.67769
301.08152
300.99615
300.77323
300.43602
300.12127
300.05521
300.2736
300.90118
301.99905
302.98189
304.4407
304.81691
304.97797
305.04054
305.09373
305.13502
304.12503
304.17396
305.06363
304.96056
303.6442
301.74974
301.51984
301.61591
301.75726
303.15053
305.5068
307.54911
307.8232
307.86613
307.8234
307.73603
307.5669
306.6255
303.81654
301.89138
301.01577
300.75541
300.79574
301.02113
301.065
301.03803
300.92045
300.56117
300.10224
299.72376
299.60435
299.77446
300.56119
301.26149
301.73141
302.00495
302.10773
301.9035
301.86402
301.65675
301.19787
300.62094
300.32736
300.44918
300.96225
301.66861
302.64697
303.90022
304.8261
304.99962
305.08985
305.16948
305.4871
305.24071
305.89402
305.15672
303.59173
302.0218
303.32331
305.05204
306.68372
307.73372
307.89559
307.76999
307.6382
307.53516
307.35719
306.14928
303.42878
301.83433
301.18382
301.0583
301.18021
301.34991
301.4045
301.34783
301.07661
300.56726
300.10479
299.85594
299.912
300.47756
301.41533
302.1627
302.70024
302.98123
303.58751
303.71625
303.67538
303.15512
301.95065
300.92708
300.77009
301.14613
301.49311
302.23533
303.04451
304.67491
305.17501
305.4091
305.53251
305.57814
305.45757
303.90127
306.81557
304.96606
305.79221
307.51299
307.87455
307.76473
307.5871
307.40827
307.0616
306.85372
305.61252
303.53772
302.16088
301.53239
301.4027
301.47963
301.54321
301.54484
301.39307
300.93524
300.45138
300.13636
300.11397
300.47297
301.53462
302.83375
304.03091
304.86132
306.50593
306.85472
307.054
306.6786
305.3382
302.8178
301.64232
301.31926
301.70883
301.94064
305.1447
305.5632
305.65337
305.73218
306.5187
307.38948
304.13132
307.55481
307.42466
307.38188
306.79466
306.45538
306.03691
304.62187
303.10748
302.40331
301.89332
301.76338
301.7473
301.72647
301.62456
301.23966
300.78771
300.44503
300.41625
300.88122
302.69871
304.43853
305.99614
307.19927
309.35444
309.23555
308.74623
308.02206
307.23808
305.18019
303.07225
302.27714
302.31407
305.37935
305.80154
305.67027
307.67227
307.32468
306.08171
306.10134
305.93981
305.02372
303.8625
302.98121
302.45289
302.056
302.05622
301.98085
301.8333
301.49421
301.06474
300.82999
300.98804
302.77997
305.70289
307.17037
307.94978
308.39373
310.65677
310.11614
309.23992
308.34198
307.5717
306.80266
304.74178
303.91241
304.91689
306.85125
307.85729
306.36398
305.21294
304.55776
303.63276
303.26009
302.90057
302.43113
302.20687
302.13668
301.95401
301.73636
301.44408
301.47313
302.18621
306.06463
307.84166
308.49543
308.59418
308.66155
311.15528
310.50133
309.52821
308.54671
307.83195
307.89465
306.72873
305.68113
305.40192
307.27253
307.52001
305.10819
304.66541
302.67567
302.58326
302.3018
302.18845
301.93551
301.7621
301.99435
304.96202
308.6297
309.15851
308.91158
308.80991
308.76213
311.44971
310.88724
309.96311
308.94242
307.954
308.05324
308.1602
306.29535
306.3816
306.96219
305.57307
305.90045
305.07773
302.316
302.40247
302.71205
303.42798
305.06243
308.93187
309.14795
308.8898
308.71555
308.67294
311.7118
311.2371
310.37535
309.34637
309.112
308.47318
308.28059
305.4838
305.24389
305.61051
306.32707
306.45066
305.06329
305.60907
306.49971
309.52346
309.33504
308.77099
308.59205
308.54814
311.94739
311.55552
310.77506
309.76856
309.33577
308.97351
304.9908
304.92914
305.19071
306.52327
306.49958
309.18413
309.23567
308.69635
308.49648
308.43625
312.17833
311.85133
311.13133
310.59117
309.56532
308.69873
304.81969
305.51089
304.95768
305.96899
306.52584
306.41957
309.38652
309.19065
308.62036
308.46988
308.41465
312.41415
312.1492
311.50638
310.80346
309.77989
304.28266
305.37912
305.98267
305.38802
306.48083
306.46018
306.18236
309.53341
308.98387
308.48349
308.47866
308.39254
312.66977
312.45233
311.88262
311.17978
310.14341
309.00657
305.70305
306.20368
306.47977
305.45726
306.54917
306.4943
309.40908
308.56061
308.354
308.36898
308.37047
312.9194
312.73268
312.22307
311.27765
310.53295
309.66503
305.73085
306.4775
306.81247
306.77285
306.12787
306.53564
306.45973
309.18574
308.41513
308.32203
308.39926
308.41489
313.21613
313.04199
312.55711
311.64604
310.86119
309.79975
306.67455
306.81063
307.0559
306.7973
306.63976
306.52978
306.48467
309.08431
308.45354
308.29787
308.30955
308.34393
313.55694
313.38141
312.87961
311.98095
311.11931
310.05944
308.74558
306.86837
306.82273
306.96779
307.15447
307.1534
306.92668
306.76786
307.20225
307.73573
308.14359
309.05569
309.84507
310.12704
310.29785
310.5926
310.68283
310.4926
309.87914
309.83656
310.08222
310.24324
310.41155
310.3303
309.47301
307.10198
306.63333
306.53574
306.58397
308.92766
308.35057
308.2821
308.28257
308.27987
313.92986
313.7418
313.20814
312.3053
311.14185
310.30098
309.23102
306.96441
306.79835
307.01148
307.2278
307.13283
306.80822
306.68228
306.83384
307.35127
307.8004
308.33835
309.3686
309.9627
310.43325
310.40216
310.72931
310.68806
309.86195
309.76594
309.93684
309.90381
309.4587
308.14281
307.33057
306.80391
306.62292
306.58134
306.81617
308.76092
308.6968
308.33224
308.27252
308.27415
308.27046
314.34091
314.12261
313.53666
312.59427
311.42792
310.52342
309.66431
307.20257
306.88283
306.78997
307.02852
307.20796
307.00746
306.83335
306.77553
306.76554
308.53402
310.58449
310.78215
309.18693
309.19759
306.97183
306.93205
306.74511
306.67831
306.7196
307.2719
308.72757
308.59406
308.29682
308.26674
308.26961
308.26658
314.8188
314.55743
313.90991
312.91974
311.73193
310.75783
309.77904
307.02223
306.9509
306.90248
306.91723
307.12854
307.07599
306.67896
306.79822
306.17009
306.34384
306.27059
306.68339
307.65375
308.59309
309.62285
310.41754
310.93536
311.14981
311.17527
310.10098
308.60433
308.43506
307.92081
307.28625
307.0487
306.85691
306.80824
306.90023
306.99536
308.01857
308.90478
308.5856
308.30043
308.27795
308.27916
308.27798
315.30256
315.00768
314.31123
313.25767
312.02824
311.05689
310.08998
309.1029
307.29914
306.98617
307.06949
307.33466
307.43898
307.43325
307.23471
306.84151
306.78816
307.75196
308.82021
309.81979
310.51655
310.9511
311.14411
311.16304
310.35699
308.91325
308.53973
307.90155
307.37728
307.06494
307.04152
307.10745
307.23985
307.59467
308.60604
308.88273
308.59123
308.34001
308.31165
308.30839
308.32925
315.71182
315.39988
314.66718
313.58315
312.35314
311.20331
310.44502
309.95793
307.49228
307.47228
307.27638
307.37046
307.52259
307.51549
307.12867
306.92411
306.77356
305.7762
306.26338
307.12752
307.94506
308.7867
309.60061
310.25664
310.67094
310.78693
310.60731
309.7628
308.93385
308.75378
307.4234
307.47227
307.6599
307.7863
307.97289
308.22185
308.55517
308.6713
308.47947
308.40233
308.4131
308.42763
308.44047
316.05078
315.72661
314.99922
313.91023
312.68801
311.55309
310.64493
310.26334
310.34159
308.03073
308.00298
307.79748
307.70547
307.69356
307.59318
306.28833
306.88371
307.89954
308.44958
309.04874
309.59233
310.04541
310.39506
310.50588
310.33664
309.66159
309.23833
309.14949
307.84874
308.20383
308.25809
308.21751
308.34224
308.35834
308.38586
308.60996
308.54424
308.51323
308.58955
308.58825
308.58585
316.3256
316.01989
315.31302
314.26086
313.06988
311.94405
311.01774
310.44054
310.51418
309.33377
308.39919
308.05802
308.00229
307.88249
307.62288
305.57632
306.97496
307.9388
308.32388
308.80217
309.34725
309.83406
310.22529
310.54271
310.61843
310.54607
310.17152
309.80689
309.73351
308.23698
308.86988
308.8326
308.64161
308.58568
308.34562
308.2318
308.05085
307.73078
308.51075
308.66034
308.71116
308.7905
308.77145
308.75118
316.56858
316.27891
315.61636
314.60616
313.45828
312.33983
311.39878
310.80265
310.65538
309.71198
308.67768
308.31266
308.26991
308.1447
307.79859
307.11633
308.15403
308.38705
308.76325
309.23113
309.72123
310.15544
310.49363
310.77344
310.81539
310.78456
310.61429
310.39738
310.3311
308.61917
309.79982
309.40792
309.06493
308.95941
308.39701
308.09109
307.96971
307.92553
307.94772
308.0125
307.62209
307.70237
308.4838
308.85051
308.90889
308.99449
308.96455
308.92836
316.80518
316.53342
315.94159
314.9947
313.87692
312.78305
311.84468
311.17702
310.6854
310.00539
308.78811
308.48022
308.52009
308.30448
307.98109
307.99501
308.69001
308.90073
309.25154
309.68871
310.13132
310.49938
310.77786
311.01161
311.02602
311.0091
310.90769
310.78728
310.71946
309.32983
310.78316
309.80307
309.34282
309.0495
307.39385
307.80673
307.85665
307.97553
308.23205
308.50592
309.00808
308.67377
307.60594
308.47127
308.95137
309.11811
309.1628
309.15141
309.11448
317.01714
316.78085
316.25082
315.34363
314.27311
313.19966
312.2915
311.70647
310.73079
309.96374
308.29178
308.18039
308.19989
308.30896
307.85696
308.51719
309.13457
309.37265
309.7185
310.1217
310.5212
310.82617
311.06172
311.23527
311.22748
311.21257
311.13687
311.03733
310.98063
310.9483
310.88498
311.34824
310.54128
309.81676
308.73998
307.44972
308.33463
309.44716
309.61235
310.35569
310.7013
310.58776
309.34451
307.50021
308.0654
308.98521
309.30311
309.35701
309.34707
309.3112
317.20227
317.00708
316.53101
315.68133
314.64283
313.5983
312.65626
311.75183
310.71284
309.24667
307.43832
307.26985
307.67547
307.6332
307.32202
308.83487
309.4563
309.72079
310.06471
310.4437
310.81967
311.09509
311.31288
311.42837
311.42007
311.43058
311.35543
311.26131
311.21971
311.37068
311.38511
311.57777
310.73351
310.16593
311.5692
312.04501
312.03146
311.4158
310.71716
307.67118
308.0083
308.91164
309.43324
309.54324
309.54052
309.50725
317.38265
317.20695
316.79406
316.00549
314.96148
313.92948
312.96826
311.78488
310.73046
308.14373
306.95409
306.6449
307.17945
307.54666
306.76717
309.10923
309.5407
309.88691
310.22782
310.58736
310.94423
311.25474
311.48846
311.63234
311.65669
311.62685
311.60224
311.54211
311.49314
311.59575
311.59764
311.69346
311.35015
309.96606
310.24463
307.78616
308.0073
308.92116
309.53939
309.70947
309.72152
309.69858
317.54214
317.41944
317.0322
316.26151
315.22942
314.17531
313.12977
311.76821
310.45473
307.66396
306.77249
306.66517
307.04889
307.48378
306.97818
307.60254
308.16412
308.58924
309.00081
309.42489
309.71162
310.07426
310.41804
310.75415
311.09876
311.43381
311.68436
311.78849
311.84267
311.86258
311.84316
311.84685
311.76921
311.81024
311.8619
311.80751
311.31789
308.51904
307.7536
308.09327
308.97981
309.64805
309.85654
309.88681
309.87862
317.70979
317.5994
317.26072
316.52312
315.42682
314.3503
313.03352
311.83199
309.7732
307.46828
306.83602
307.24545
307.45967
307.73613
308.01893
308.49309
308.84456
309.15797
309.49352
309.80545
310.05724
309.99931
310.09148
310.34913
310.54848
310.70895
310.84066
310.9324
310.95629
311.13604
311.41088
311.75492
312.02088
312.01333
311.99491
311.81312
307.80068
307.80994
308.2184
309.10363
309.77409
309.99547
310.04608
310.04968
317.84893
317.77329
317.46335
316.71705
315.58448
314.28925
313.06846
311.50624
308.91009
307.54753
307.36096
308.0185
308.34054
308.83647
309.24876
309.55924
309.56766
309.79775
310.03597
310.21378
310.35792
310.23377
309.83037
309.56421
310.06689
310.26051
310.4542
310.71779
310.41255
310.81267
311.52736
312.25552
312.25456
312.14593
311.95504
311.06377
307.59796
307.74462
307.91985
308.40748
309.305
309.92226
310.13906
310.20123
310.21157
318.00194
317.88922
317.58683
316.89801
315.62921
314.34901
312.88094
311.02288
308.49342
307.82921
308.38484
308.77204
309.46155
310.0148
310.22358
310.42759
310.67847
310.91792
310.87117
310.74004
310.62847
310.03034
309.58367
309.10132
309.94757
310.30237
310.61585
310.50865
310.3388
311.17371
311.72901
312.2259
312.04401
311.88716
311.54786
307.33516
307.92072
308.03475
308.09847
308.67417
309.54314
310.08227
310.28548
310.35137
310.36785
318.12307
317.97568
317.70209
316.95399
315.60893
314.12411
312.70762
310.1831
308.53566
308.35934
309.41416
310.00518
310.96991
311.40042
311.53855
311.58173
311.59997
311.68392
311.60564
311.30649
310.92882
310.59553
310.10155
309.89633
310.8368
310.86572
310.73653
310.71921
311.02581
311.29551
311.34403
311.35699
311.17904
310.54066
308.81656
308.26385
308.31871
308.19115
308.33677
308.97941
309.78944
310.25207
310.439
310.50687
310.52844
318.20228
318.05804
317.76425
316.96548
315.57855
314.0372
312.17659
309.73206
308.88501
309.26326
310.26885
310.95371
311.07414
310.77035
310.61224
310.49589
310.89201
311.10821
311.15999
311.00266
310.60748
309.77147
308.65233
307.85776
308.86524
309.61583
309.48748
308.79048
308.70374
309.00107
309.85334
310.24341
309.8707
309.10981
308.32256
308.37987
308.48524
308.41832
308.33964
308.6001
309.27747
310.02652
310.43225
310.61526
310.69263
310.72246
318.24493
318.11441
317.76891
316.91975
315.42854
313.66204
311.49665
309.71988
309.43248
309.89853
310.51283
310.90863
310.85377
309.69843
309.76362
309.40295
309.05195
308.8304
308.53246
307.43497
309.27721
308.79446
308.53905
308.49411
308.85902
309.58085
310.26476
310.63338
310.82979
310.93184
310.97345
318.27771
318.13067
317.74559
316.73084
314.96744
313.06445
310.8838
309.90832
309.84088
310.38555
310.71372
310.90803
311.16426
308.64788
309.66714
309.52346
308.86622
308.83215
308.79842
308.45233
308.12443
310.25183
309.31408
308.8401
308.63571
308.64305
309.11363
309.87278
310.51585
310.87828
311.11192
311.24326
311.29985
318.26627
318.11505
317.61683
316.27825
314.19176
312.10606
310.64702
310.28379
310.54171
310.86346
311.15117
311.30045
311.71412
311.35782
309.51711
309.54009
309.4503
308.39135
308.84744
308.72744
308.17869
308.16661
310.71935
309.41224
308.8806
308.71586
308.79998
309.36697
310.17339
310.80322
311.19807
311.48252
311.6398
311.70929
318.20413
317.97677
317.15596
315.27532
313.00504
311.51417
310.974
311.00907
311.2662
311.44053
311.74013
312.17302
312.41176
312.38247
309.46106
309.55818
309.45172
309.18149
308.94292
309.02813
309.12082
310.10605
310.6418
312.23614
310.68038
309.36592
308.92245
308.79253
308.97666
309.65779
310.49889
311.14973
311.60714
311.94079
312.11645
312.20433
318.0171
317.49274
316.09604
313.96269
312.29674
311.59142
311.44507
311.75993
311.91575
312.10622
312.39557
312.83208
313.03414
313.21141
309.63392
309.72684
309.54675
309.45828
309.33611
310.4184
311.27873
312.01731
311.2593
313.43336
312.18052
310.22877
309.32374
308.96436
308.88553
309.17819
309.96507
310.85626
311.57535
312.1067
312.48476
312.67135
312.75301
317.31228
316.34013
314.66328
313.12901
312.36373
312.1528
312.40828
312.5446
312.61777
312.76604
313.04704
313.43432
313.6212
313.91265
310.07938
309.7403
309.60535
308.89753
309.8906
311.37484
312.45363
312.74656
312.56593
314.26094
311.89192
310.02736
309.32276
309.02345
308.99941
309.40109
310.30471
311.28184
312.08286
312.68056
313.07569
313.25358
313.33852
316.22873
315.11677
313.87157
313.05994
312.77719
312.76706
312.89066
313.05521
313.20111
313.39336
313.63924
313.89603
314.06464
314.3044
313.92556
308.36218
310.03236
309.81694
309.70957
312.0805
312.97547
313.48645
312.59097
311.85512
310.0269
309.35791
309.10044
309.1138
309.65906
310.68833
311.7731
312.66422
313.31604
313.67867
313.8692
313.93778
315.422
314.58638
313.70127
313.33386
313.27763
313.30218
313.3302
313.5278
313.66493
313.83298
313.96218
314.01589
314.10557
314.24083
314.7536
313.93414
308.84752
309.31468
309.3179
312.63919
312.34525
311.86429
310.21676
309.4571
309.20394
309.27673
309.92716
311.10025
312.32806
313.29503
313.95704
314.3125
314.4617
314.53023
315.19663
314.47606
313.92103
313.7612
313.74735
313.76311
313.75399
313.82193
313.86301
313.99065
313.94089
313.95881
313.96885
313.95468
314.43049
314.83931
314.70009
308.87149
308.98472
308.95776
308.4953
311.89887
312.08894
312.10035
311.84981
310.55092
309.62933
309.32192
309.44084
310.22602
311.55533
312.91656
313.95893
314.61559
314.9895
315.13831
315.24504
315.181
314.6253
314.28347
314.22959
314.24841
314.30901
314.13911
314.00594
313.92064
314.00201
313.93635
313.87831
313.7834
313.75441
313.84248
314.22312
314.69694
310.93195
308.0477
308.75369
309.11163
308.82519
308.6104
311.77865
311.81978
311.93102
311.83426
310.91511
310.03513
309.55488
309.64369
310.5155
312.01445
313.50631
314.65016
315.39461
315.74504
316.02136
316.07526
315.32067
314.8307
314.65977
314.65501
314.69245
314.40466
314.20509
314.04994
313.95816
313.92802
313.79638
313.69886
313.63591
313.6208
313.71457
314.08457
314.31574
313.4438
310.31541
308.92921
309.11209
308.82307
308.43164
307.7923
311.30655
311.58985
311.68518
311.80834
311.77467
311.23031
310.57304
309.97402
309.95343
310.74546
312.42936
314.1241
315.43506
316.28479
316.50587
316.70746
316.70704
315.35112
315.03443
314.92761
314.96266
314.71246
314.40957
314.17745
313.99033
313.86274
313.72852
313.6096
313.53756
313.51387
313.53918
313.67439
313.97586
314.23233
312.28082
309.96458
309.31337
309.35444
308.53603
309.03915
308.69864
308.51622
308.27304
310.2082
311.35087
311.37908
311.56367
311.69916
311.71009
311.44973
311.00174
310.63846
310.44853
311.0151
312.73784
314.80453
316.26738
316.87779
316.98197
317.01648
317.00222
315.46344
315.22395
315.16528
315.02844
314.66796
314.32001
314.02452
313.80714
313.65412
313.53256
313.45383
313.42353
313.43103
313.50682
313.63493
313.95613
313.43274
311.08389
309.87232
309.59172
309.46959
309.38477
309.26881
308.82446
308.27002
308.12877
307.81241
307.26088
310.93706
310.9041
311.13366
311.34286
311.53028
311.62502
311.51321
311.29492
311.07302
311.08195
311.50265
313.0507
315.50363
316.86742
317.12878
317.17031
317.15305
317.12988
315.60889
315.31987
315.17266
314.92615
314.54816
314.06526
313.78207
313.60418
313.47597
313.38738
313.35553
313.36058
313.4056
313.50117
313.5644
313.43705
312.56216
310.32906
309.7459
309.5177
309.36145
309.08397
308.90573
308.20596
307.77475
307.49259
307.44736
307.29537
307.35042
309.86484
310.57264
310.61747
310.89756
311.12619
311.30592
311.47061
311.49808
311.42493
311.38308
311.48018
311.77193
312.97736
315.94661
317.08836
317.22555
317.27617
317.22135
317.18053
315.75419
315.42175
315.14936
314.86443
314.28539
313.81194
313.59538
313.45081
313.34117
313.29003
313.28098
313.31092
313.3545
313.44532
313.47673
312.97589
311.50498
309.9842
309.59166
309.35312
309.06639
308.65775
308.18417
307.69536
307.28862
306.97114
306.742
306.62324
306.84278
307.10031
306.80446
310.05552
309.82693
310.30968
310.66384
310.93252
311.13997
311.3164
311.45068
311.44498
311.46341
311.69984
311.95604
313.06949
316.11079
317.12945
317.25094
317.28744
317.24181
317.20125
315.85152
315.51868
315.11265
314.71424
314.05803
313.64733
313.47533
313.35099
313.25982
313.22632
313.23383
313.27194
313.30386
313.28161
312.96129
312.25648
310.7594
309.75968
309.41846
309.12094
308.70094
308.20348
307.72429
307.24914
306.85169
306.55548
306.36159
306.17384
306.05216
306.24414
305.95885
306.01159
305.15992
307.23121
309.51227
309.29923
309.90786
310.32944
310.68204
310.9671
311.1749
311.3425
311.42623
311.51383
311.69093
312.09473
313.14614
316.11551
317.08014
317.24856
317.21732
317.22523
317.18578
315.81314
315.52259
315.07255
314.52449
313.8847
313.54528
313.4024
313.28781
313.21063
313.18564
313.20454
313.2487
313.22631
312.95814
312.43046
311.60403
310.27614
309.56026
309.20295
308.79105
308.27336
307.77537
307.3286
306.90874
306.57039
306.16971
305.703
305.02639
304.2689
303.82908
304.05136
304.47569
304.346
303.73466
308.01744
308.785
308.78714
309.34624
309.88833
310.32491
310.68316
310.9837
311.22193
311.37544
311.49707
311.68501
311.97359
312.91107
315.9189
316.98911
317.18356
317.14522
317.14795
317.12843
315.54322
315.3592
314.86183
314.29664
313.71418
313.44995
313.33436
313.24158
313.16431
313.13549
313.13649
313.06448
312.82823
312.31148
311.80071
311.05358
309.94763
309.33263
308.92615
308.42891
307.87443
307.42706
307.06759
306.73225
306.22897
305.37288
304.22302
303.07973
302.71095
302.72298
302.97453
303.20789
303.18273
303.1075
302.82302
302.55562
302.9877
307.48112
308.62786
308.48835
308.81839
309.34269
309.85673
310.3024
310.68634
310.99912
311.2615
311.44975
311.69067
312.02626
312.84465
315.56605
316.81074
316.9582
317.00749
317.02925
317.02788
314.99596
314.96389
314.60031
314.03036
313.51754
313.32126
313.22378
313.14833
313.08158
313.0308
312.99001
312.84699
312.28354
311.64265
311.19013
310.56687
309.68292
309.09672
308.65316
308.12896
307.60202
307.21571
306.86392
306.16977
305.00759
303.47925
302.26235
301.92683
301.84964
301.85511
301.96242
302.1074
302.14811
302.14559
302.08983
302.14033
302.16532
302.1611
302.3953
306.07052
308.28354
308.32554
308.50606
308.86871
309.35737
309.84654
310.29485
310.68722
311.02343
311.31337
311.71075
311.89845
312.64482
314.87865
316.3076
316.69139
316.79769
316.86007
316.87022
314.22459
314.29237
314.15013
313.68439
313.29621
313.11039
313.03188
312.98915
312.95112
312.89816
312.79053
312.50473
311.87938
311.15939
310.6676
310.17403
309.49358
308.89789
308.4163
307.89041
307.40007
306.97012
306.22257
304.87307
302.83313
301.72946
301.5217
301.45562
301.36187
301.26391
301.2154
301.2153
301.19272
301.1913
301.15451
301.18854
301.41238
301.63054
301.82844
303.59307
307.36043
308.18807
308.30768
308.56175
308.95398
309.41018
309.87753
310.31953
310.71609
311.0444
311.54314
311.9393
312.48836
313.90656
315.38832
316.04574
316.42376
316.59271
316.65545
313.33626
313.48377
313.51333
313.30541
313.0102
312.86965
312.76377
312.73986
312.69113
312.61997
312.50601
312.2618
311.79266
311.11651
310.41747
309.77456
309.17512
308.72707
308.22116
307.6966
307.16799
306.49251
304.97899
302.3335
301.26846
301.15915
301.15804
301.14706
301.04927
300.90718
300.76315
300.63369
300.51903
300.40832
300.29653
300.19627
300.23732
300.34231
300.62864
301.73435
305.014
307.47186
308.08985
308.32943
308.65036
309.04469
309.4812
309.93357
310.36717
310.73054
311.35008
311.82751
312.21602
313.3895
314.52635
315.18942
315.79969
316.23678
316.40212
312.50022
312.63497
312.75981
312.75965
312.65478
312.53915
312.47588
312.4317
312.38023
312.30692
312.1958
312.01842
311.73648
311.27416
310.59814
309.80412
309.12098
308.52713
308.0994
307.48682
306.76694
305.30532
302.26989
300.72694
300.6015
300.74637
300.85552
300.86255
300.77234
300.61482
300.42746
300.22901
300.02976
299.82647
299.60814
299.40363
299.23756
299.30814
299.49824
300.16083
302.03449
305.99015
307.77422
308.17253
308.43124
308.76094
309.14498
309.57867
310.00765
310.45447
310.96109
311.75233
312.14753
313.21852
314.1499
314.60436
315.143
315.81102
316.13476
311.79525
311.90039
312.05757
312.15639
312.17491
312.16242
312.13933
312.1107
312.06896
312.00238
311.90261
311.76714
311.56426
311.27809
310.83824
310.19183
309.34061
308.58676
307.92731
307.29894
306.08435
303.40082
300.42173
299.97115
300.02287
300.31015
300.50739
300.54285
300.4744
300.30607
300.10195
299.86481
299.61279
299.34092
299.06684
298.78555
298.59277
298.61883
298.83909
299.45114
300.73817
303.64784
306.62621
307.85497
308.24801
308.54202
308.87704
309.26749
309.67286
310.16813
310.73222
311.54346
312.13203
313.0032
313.86156
314.31685
314.79993
315.45011
315.87257
311.2577
311.32947
311.48021
311.62998
311.73664
311.79903
311.82681
311.82853
311.81056
311.7577
311.66576
311.53201
311.35274
311.12214
310.81002
310.37485
309.76255
308.92058
308.03787
307.014
305.14063
301.91955
300.06273
299.55798
299.54196
299.83103
300.12128
300.18447
300.12585
299.96457
299.74593
299.48379
299.19983
298.89756
298.57505
298.30007
298.16534
298.2407
298.63663
299.55337
301.07936
303.27985
305.89236
307.46334
308.05412
308.36091
308.67262
309.01589
309.39023
309.87603
310.48124
311.32876
311.97918
312.74988
313.56917
314.24873
314.6971
315.23006
315.65476
310.88642
310.9279
311.06069
311.22442
311.37545
311.49317
311.57214
311.61039
311.61209
311.57145
311.48511
311.34956
311.16402
310.92614
310.60089
310.22047
309.82206
309.22274
308.38905
307.23899
305.38197
302.62349
300.51222
299.32836
299.11917
299.3498
299.6645
299.74915
299.71171
299.54636
299.32128
299.04935
298.74485
298.42156
298.12009
297.90244
297.83274
297.96868
298.46727
299.51612
301.24451
303.63121
306.00485
307.36316
307.94288
308.23005
308.51019
308.83949
309.21208
309.69184
310.26464
311.20785
311.84417
312.68504
313.55981
314.28027
314.69637
315.12179
315.48901
310.65186
310.67137
310.78796
310.95254
311.1241
311.27462
311.3885
311.4566
311.47578
311.44548
311.36168
311.21803
311.01173
310.73073
310.33991
309.84085
309.45404
309.10724
308.48659
307.51877
305.91916
303.61695
300.74586
299.04563
298.63222
298.82226
299.11019
299.20537
299.1813
299.0366
298.80861
298.53482
298.23344
297.93737
297.69542
297.54642
297.53399
297.66827
298.06969
298.88078
300.34255
302.66322
305.38559
307.15037
307.83739
308.1304
308.38081
308.68502
309.0569
309.45961
310.14605
311.06964
311.74887
312.63722
313.55895
314.24578
314.69352
315.09582
315.37009
310.55528
310.557
310.65719
310.81459
310.99127
311.15659
311.28954
311.37647
311.40946
311.38579
311.30079
311.14581
310.90741
310.54071
309.95945
308.99163
308.53279
308.17574
307.96546
307.11737
305.40187
302.38968
299.658
298.26437
297.99022
298.14838
298.38403
298.52206
298.5182
298.39698
298.19631
297.92864
297.67908
297.46655
297.31949
297.24625
297.24852
297.33167
297.5546
297.99869
298.88546
300.54988
303.18077
306.07621
307.5642
308.04057
308.30041
308.59236
308.93794
309.37882
310.05511
310.92203
311.70525
312.71759
313.68139
314.31984
314.70342
315.10534
315.30785
310.56218
310.55278
310.6408
310.78977
310.9638
311.13195
311.27118
311.3656
311.40468
311.38316
311.29504
311.12993
310.85833
310.35626
309.20097
306.11636
306.75385
304.59896
306.0798