/*--------------------------------*- C++ -*----------------------------------*\
  =========                 |
  \\      /  F ield         | OpenFOAM: The Open Source CFD Toolbox
   \\    /   O peration     | Website:  https://openfoam.org
    \\  /    A nd           | Version:  8
     \\/     M anipulation  |
\*---------------------------------------------------------------------------*/
FoamFile
{
    version     2.0;
    format      ascii;
    class       volScalarField;
    location    "3600/air";
    object      w;
}
// * * * * * * * * * * * * * * * * * * * * * * * * * * * * * * * * * * * * * //

dimensions      [0 0 0 0 0 0 0];

internalField   nonuniform List<scalar> 
167754
(
0.01808748
0.018092619
0.018112687
0.018144708
0.018178133
0.018192396
0.018158584
0.018054254
0.017889042
0.017700529
0.017526487
0.017391731
0.017312527
0.017298692
0.017343034
0.017411141
0.017450643
0.017420523
0.017297625
0.017088442
0.016825014
0.016553325
0.016310549
0.016136446
0.016159021
0.01649034
0.016935508
0.017433222
0.017894299
0.018202273
0.018225054
0.017940955
0.017622212
0.017390072
0.017337259
0.01745946
0.017635992
0.017818102
0.01798725
0.018129224
0.018238965
0.018318508
0.018370478
0.018395636
0.018395578
0.018375381
0.018341946
0.01830097
0.018253988
0.018202089
0.018144217
0.018080628
0.018013335
0.017945935
0.017883614
0.017832743
0.017796078
0.017774055
0.017765986
0.017733987
0.017743917
0.017768616
0.017801056
0.017822579
0.01780286
0.017710764
0.017536002
0.017301521
0.0170506
0.016826563
0.016663525
0.016592915
0.016624646
0.016710304
0.016761822
0.016712401
0.016558609
0.01630731
0.015982415
0.015610394
0.015221953
0.014867756
0.014658842
0.014784589
0.01539269
0.016021966
0.016654363
0.01722712
0.017620808
0.017586447
0.017193693
0.0167205
0.016322422
0.016133377
0.01619977
0.016378858
0.016604489
0.016845065
0.017084318
0.017308939
0.01750526
0.017660652
0.017765901
0.017824162
0.017852808
0.01786939
0.017881615
0.017888229
0.017882446
0.017854182
0.017801426
0.017727031
0.017638192
0.017546369
0.017464112
0.017402005
0.017360544
0.017340322
0.017440076
0.017454188
0.017484012
0.017517828
0.017528219
0.017476604
0.017333743
0.01709742
0.016791554
0.016456427
0.016136287
0.01588926
0.015800942
0.015911484
0.016082971
0.016151008
0.016065063
0.015850649
0.015539852
0.015141948
0.014665819
0.014151211
0.013686091
0.013403933
0.0136585
0.014548495
0.015402111
0.016158178
0.016752958
0.017129019
0.017083346
0.016613295
0.015951076
0.015387306
0.01509873
0.015102939
0.015275189
0.015522447
0.015799518
0.016094459
0.016394451
0.016679306
0.016924242
0.017107512
0.017228814
0.017313083
0.017386389
0.017458765
0.01752712
0.017581079
0.017602906
0.017582356
0.017516727
0.017416587
0.017300081
0.017190355
0.017107289
0.017050223
0.017020825
0.017179851
0.017198433
0.017235689
0.017275359
0.017280838
0.017205624
0.017021943
0.016727474
0.016332407
0.015856277
0.015342737
0.014923524
0.014780634
0.015029228
0.015340433
0.015472866
0.01541018
0.015215039
0.014925458
0.01452232
0.014354084
0.013628182
0.012490992
0.012351804
0.012735564
0.013921279
0.014967348
0.015779238
0.016309675
0.016672891
0.01665466
0.01601637
0.015049768
0.014138305
0.013747801
0.013858661
0.014146323
0.014511218
0.014855281
0.015208745
0.015572555
0.015929372
0.016248683
0.016500172
0.016677699
0.016808393
0.016925659
0.017044845
0.01716403
0.017272445
0.017349787
0.017378234
0.017341162
0.017241651
0.017106265
0.016971739
0.016870138
0.016801016
0.016765889
0.016930865
0.016954541
0.01700252
0.01705481
0.017065067
0.016978596
0.016768312
0.016425976
0.015932205
0.015261007
0.014491162
0.013872051
0.01369927
0.013911564
0.014434788
0.014724093
0.014716267
0.014594792
0.014704327
0.014319914
0.013650331
0.01273218
0.012096726
0.0119706
0.012513049
0.013419239
0.014525851
0.01531164
0.015776853
0.016153316
0.016161971
0.015280283
0.013654186
0.012543094
0.012113085
0.012118241
0.012608326
0.013233134
0.01382139
0.014330986
0.014790436
0.015221587
0.015609365
0.015924291
0.016154342
0.016325361
0.016476276
0.016630598
0.016790259
0.016944873
0.017074027
0.017158663
0.017169456
0.017088465
0.016940496
0.016782401
0.016663745
0.016585259
0.01654645
0.01667422
0.016704654
0.016764314
0.016837174
0.016866072
0.016784597
0.016566195
0.016198781
0.015606116
0.014755894
0.013839769
0.013298299
0.013182373
0.013251553
0.013486476
0.013947662
0.014064902
0.014342617
0.01417955
0.013855832
0.01339778
0.012030414
0.01181734
0.01206051
0.012479015
0.013182598
0.014237337
0.01500741
0.014955816
0.015395912
0.015417396
0.014268565
0.012674035
0.011972402
0.011613305
0.011453427
0.011482339
0.011955073
0.012677915
0.013377599
0.013984516
0.014512416
0.014975325
0.015357364
0.015642115
0.015851962
0.016031309
0.016211648
0.016402781
0.016595833
0.016769195
0.016906499
0.016975642
0.016934819
0.016788174
0.016606378
0.016470109
0.016379899
0.016336878
0.016385454
0.016420358
0.016497116
0.016596623
0.016662202
0.016604969
0.016395352
0.01601291
0.015351671
0.014385668
0.013444811
0.013079278
0.012996133
0.012999363
0.013057313
0.013231796
0.013820967
0.013915901
0.013911677
0.013753485
0.011729947
0.011776829
0.011870967
0.012872282
0.013178229
0.013383345
0.013918538
0.01434921
0.014899087
0.015117397
0.012684447
0.011987205
0.01158778
0.011347255
0.011218117
0.011171816
0.011248179
0.011696583
0.012395229
0.01310653
0.013752665
0.014319284
0.014786263
0.015135629
0.015387286
0.015593689
0.015794379
0.016008124
0.016231612
0.016441261
0.016621178
0.016745132
0.016758865
0.016630105
0.016424837
0.016256442
0.016151111
0.016106712
0.016016401
0.016052943
0.016151007
0.016295465
0.016418271
0.016414237
0.016227657
0.015818112
0.015123993
0.014482653
0.013261231
0.012992766
0.012934881
0.012921097
0.01291688
0.013035925
0.013580126
0.013833211
0.011859267
0.011788731
0.011704757
0.013004358
0.013305633
0.013304235
0.013876397
0.013014901
0.012115133
0.011308993
0.011170165
0.011090493
0.011052602
0.01105447
0.011144196
0.011553195
0.01219929
0.01290905
0.013579397
0.014159883
0.01461964
0.014939819
0.01517853
0.015395836
0.015623717
0.015867718
0.016105506
0.016316161
0.016481355
0.016547745
0.016448854
0.016221062
0.016001371
0.015863288
0.015807103
0.015497556
0.015525465
0.015639584
0.015849342
0.016076752
0.01616807
0.016019497
0.015593988
0.015183157
0.01447094
0.013535364
0.012959905
0.012900998
0.012887693
0.012869432
0.012803406
0.013292015
0.011906815
0.011784135
0.011662947
0.013298533
0.012948689
0.012230122
0.011626978
0.01118311
0.011033873
0.010987917
0.010985253
0.010997257
0.011076937
0.011440754
0.012066448
0.012790057
0.013473996
0.014049781
0.014485198
0.014800769
0.015041553
0.015276274
0.015528463
0.015782877
0.016011464
0.016200323
0.016301393
0.016227715
0.015972913
0.015682925
0.015470802
0.015367794
0.014751675
0.014737488
0.014819318
0.015087418
0.015495973
0.015778522
0.015719262
0.015315074
0.015058016
0.014583566
0.014067217
0.012989276
0.012810991
0.012788391
0.012758748
0.012700791
0.012938174
0.011897543
0.011913781
0.011785055
0.011872434
0.011227021
0.010981802
0.010949598
0.010944624
0.010943312
0.010963446
0.011066362
0.011427352
0.012054912
0.012788938
0.013463082
0.014009579
0.014423025
0.014731274
0.014985354
0.01523716
0.015491837
0.01572344
0.015915876
0.016020641
0.015942693
0.015651654
0.015277778
0.014951179
0.014741351
0.013797855
0.013662137
0.013561521
0.013760333
0.014436819
0.015124002
0.015296299
0.015216378
0.014861259
0.014580114
0.012714527
0.01267843
0.012631607
0.012558677
0.011992046
0.011886294
0.011770057
0.010899112
0.010909568
0.010926453
0.010926174
0.010965673
0.011239122
0.01171317
0.012351157
0.013053254
0.013601058
0.01407697
0.01444711
0.01473671
0.014993665
0.015237314
0.015456954
0.015629349
0.015694675
0.015549733
0.015186472
0.014753932
0.014341524
0.013981647
0.012801099
0.012747185
0.012763551
0.01289913
0.01326478
0.014273138
0.014915703
0.014943495
0.014737813
0.012393105
0.012376883
0.012213026
0.011999524
0.011862345
0.010891826
0.010974002
0.011266437
0.011658346
0.012118091
0.012859744
0.013389954
0.013895154
0.014251896
0.014538527
0.014789059
0.015013681
0.015205744
0.015330316
0.01530334
0.014977539
0.014423497
0.013993442
0.013657643
0.013402247
0.012378547
0.012431578
0.01252604
0.012654524
0.012853597
0.013362247
0.014229473
0.014577245
0.012127883
0.012057972
0.011985727
0.011857038
0.011697309
0.011916655
0.012464726
0.012991692
0.013381392
0.013798917
0.014183488
0.0144518
0.014687265
0.014825071
0.014968047
0.015010034
0.014815468
0.014152737
0.013664493
0.013398527
0.01323739
0.013142589
0.012231359
0.012312556
0.012428297
0.012551846
0.012688623
0.012819693
0.013564675
0.014308585
0.012190528
0.01217693
0.012020082
0.012027852
0.012042695
0.01412165
0.014202732
0.014336153
0.014522274
0.014716095
0.014844209
0.014860721
0.014199402
0.013514961
0.01321197
0.013117006
0.01307741
0.013058749
0.012158683
0.012239035
0.012356162
0.012478813
0.012618285
0.012642579
0.012801632
0.012375144
0.012392801
0.012107209
0.01229634
0.012207453
0.012151376
0.014415373
0.014549033
0.014596718
0.014554032
0.014135929
0.013382465
0.013011639
0.013031406
0.013039882
0.01304255
0.012108437
0.012178442
0.012287992
0.012405291
0.012471209
0.012563019
0.012575996
0.012428282
0.012648069
0.012575253
0.012367743
0.01233663
0.01221961
0.014423929
0.014031951
0.013070978
0.01295671
0.013026569
0.013041457
0.013046411
0.012068191
0.012126475
0.012225629
0.012340081
0.012383041
0.012433216
0.012660491
0.012739048
0.012669953
0.012354769
0.012354371
0.012890588
0.012965188
0.013039515
0.013051245
0.013054977
0.01203251
0.012080997
0.012170394
0.012234063
0.012314552
0.01231138
0.012567453
0.012750407
0.012768269
0.01238152
0.012350103
0.012358902
0.012806268
0.012991023
0.013053091
0.013061308
0.013063885
0.011997555
0.012038613
0.012123583
0.012190566
0.012283952
0.012602165
0.012734643
0.012804184
0.012784071
0.01237821
0.012352871
0.012369225
0.012841636
0.013017518
0.013064409
0.013069927
0.013071843
0.011960798
0.011995112
0.012074199
0.012154329
0.012256587
0.012277478
0.012834696
0.012852652
0.012830979
0.012799123
0.012370169
0.012369694
0.012913096
0.013051547
0.01307334
0.013076636
0.013078274
0.011920309
0.011950646
0.012023686
0.012142538
0.01222118
0.012276602
0.012860115
0.012886312
0.012873852
0.012837426
0.012385813
0.012378412
0.012394357
0.012930395
0.013058883
0.013078173
0.013081129
0.013082952
0.011869697
0.011898819
0.011969284
0.012087702
0.012177473
0.012280694
0.012903795
0.012900768
0.012878909
0.012836011
0.01237734
0.012400315
0.012425853
0.012950468
0.01306297
0.01308033
0.013083535
0.01308582
0.011806634
0.011836666
0.011909308
0.012027815
0.012133071
0.012250873
0.01226922
0.012880856
0.01291617
0.012903296
0.012874505
0.012832456
0.012755685
0.012602829
0.012452736
0.012193708
0.01174937
0.011293217
0.01100167
0.010824658
0.010915847
0.011191893
0.011490953
0.011682435
0.011871605
0.012046258
0.01209882
0.012077069
0.012021332
0.011966983
0.011978612
0.012284524
0.01241964
0.012436477
0.012471113
0.012968158
0.01306422
0.013080153
0.013083907
0.013086807
0.011729866
0.011762743
0.011841188
0.011963963
0.012113877
0.012211737
0.012271335
0.012913899
0.012915607
0.012896443
0.01286467
0.012802197
0.012728338
0.012648203
0.012572001
0.012399934
0.011927364
0.011526148
0.011512641
0.011118019
0.010893993
0.010891524
0.011166617
0.011619382
0.012079849
0.012302718
0.012352384
0.012335265
0.012165416
0.012188446
0.012297827
0.01244468
0.012472718
0.012489528
0.012533635
0.012823995
0.01298206
0.013062887
0.013077826
0.013082222
0.01308576
0.011635743
0.011674851
0.011763029
0.01189538
0.012050792
0.012160154
0.01224811
0.012864937
0.012909816
0.012902706
0.012882409
0.01284921
0.01280078
0.012722969
0.0127006
0.012671715
0.012090213
0.011735732
0.011590138
0.012380058
0.012467428
0.012434756
0.012480959
0.01251335
0.012529458
0.012552196
0.012603402
0.012837847
0.012990579
0.013059718
0.013073436
0.013078259
0.01308238
0.011522535
0.01156612
0.011667052
0.011814009
0.011979249
0.012102159
0.012228393
0.012804733
0.012881901
0.012883081
0.01286534
0.012844119
0.012821186
0.012702737
0.01269565
0.012680914
0.012659403
0.012634471
0.012441154
0.012311539
0.01216642
0.012013737
0.011875129
0.011755617
0.0116708
0.011644687
0.01194396
0.012394712
0.012502554
0.012552222
0.012524664
0.012534013
0.012554968
0.012577986
0.012605555
0.012617497
0.012671787
0.012870714
0.012997218
0.013054618
0.013066613
0.01307118
0.013075095
0.011427951
0.011477974
0.011590671
0.011748619
0.011921782
0.012055113
0.012189821
0.012227448
0.01282122
0.012851173
0.012827904
0.012777515
0.012733967
0.012718806
0.012684631
0.01266819
0.012414688
0.012316831
0.012181974
0.012037811
0.011915835
0.011825231
0.011754549
0.011700905
0.011837878
0.012279971
0.012483014
0.012571035
0.012586414
0.012604562
0.012628121
0.012641168
0.012642919
0.012690371
0.012745863
0.012898004
0.012998446
0.013045484
0.013055799
0.013060734
0.013065184
0.011347416
0.011403337
0.011525191
0.011691935
0.011870048
0.012029638
0.01214714
0.012207392
0.012732681
0.012786763
0.012788897
0.01274742
0.012655299
0.012577579
0.012550389
0.012569978
0.012603188
0.012514212
0.01247489
0.012390515
0.012291857
0.01216993
0.01205215
0.011963231
0.011892391
0.011828372
0.011833139
0.012038259
0.012274472
0.012423912
0.01263974
0.012654429
0.012670436
0.012692241
0.012721166
0.012752882
0.012798308
0.012944498
0.013011273
0.013032311
0.013042624
0.013048333
0.013053202
0.011277776
0.011338162
0.011467032
0.011641095
0.011825032
0.011992534
0.012135006
0.012209204
0.012272486
0.012516023
0.012694706
0.012748198
0.012744783
0.012686296
0.012586846
0.012443795
0.01238977
0.012229215
0.012149035
0.012074997
0.012012763
0.011954527
0.011902952
0.011871236
0.011926132
0.012088105
0.012200681
0.012297859
0.012672957
0.012704959
0.012734789
0.012756619
0.012774399
0.012793255
0.012828141
0.012936597
0.012996863
0.013016776
0.013027797
0.013034127
0.013039247
0.011215436
0.011278618
0.011412252
0.011592736
0.011783494
0.011958391
0.012108384
0.012236987
0.012286553
0.012472185
0.012651851
0.012706065
0.012706461
0.012658719
0.012591498
0.012473965
0.012382666
0.012255855
0.012180143
0.01209887
0.012024902
0.011964629
0.011911824
0.011866528
0.011837909
0.011869615
0.011979439
0.012060135
0.012104404
0.012623642
0.012649153
0.012734184
0.012782096
0.012808012
0.012826036
0.012842743
0.01285171
0.012859774
0.012914519
0.012978412
0.012999785
0.013011452
0.013018199
0.013023442
0.01115782
0.011221947
0.01135798
0.011543971
0.011742559
0.011925579
0.012083644
0.012221278
0.012340157
0.012487647
0.012629397
0.012685889
0.012686344
0.012655675
0.012605072
0.012378881
0.012275256
0.012212369
0.012132648
0.012043911
0.011963722
0.011899188
0.01184429
0.011799781
0.011771895
0.011786171
0.011854409
0.011903933
0.011885416
0.012391488
0.012341918
0.012615125
0.012768862
0.012814954
0.012831854
0.01284436
0.012859657
0.012873264
0.012879269
0.012877023
0.012873787
0.012818227
0.01289364
0.012960118
0.012981875
0.012993722
0.01300066
0.013005953
0.011103042
0.011166452
0.011302763
0.011493291
0.011700624
0.011893264
0.012060025
0.012205344
0.01233387
0.012471118
0.01259408
0.012652838
0.01265855
0.012640646
0.01259984
0.012313797
0.012222561
0.012157593
0.012069783
0.011971433
0.011884449
0.011816808
0.011760865
0.011717302
0.011689059
0.011690796
0.011729832
0.01175533
0.011704232
0.011838778
0.011836727
0.012435624
0.012754008
0.012804776
0.012862377
0.012873773
0.012880707
0.012892936
0.012892838
0.012889252
0.012872091
0.012852437
0.01280179
0.012873764
0.012940549
0.012963017
0.012974672
0.012981568
0.012986876
0.011049957
0.011111295
0.011246063
0.011439149
0.011656294
0.011862202
0.01203911
0.012192538
0.012327491
0.012453467
0.012558657
0.012579346
0.012610831
0.012613704
0.012584961
0.012245278
0.012153256
0.012082111
0.011983841
0.011875415
0.011782356
0.011713316
0.011658132
0.011617675
0.011591171
0.011586288
0.011606776
0.011616882
0.011554895
0.011394978
0.011290723
0.011385549
0.012138381
0.012687693
0.0127604
0.012896623
0.01289781
0.012891443
0.012889285
0.012879371
0.012861517
0.012815933
0.012768502
0.012777356
0.012847218
0.012915929
0.012942911
0.012954241
0.012960808
0.012966092
0.010998759
0.01105623
0.011187192
0.01138175
0.011608723
0.011829442
0.012021147
0.012183603
0.012322012
0.012442225
0.012505961
0.012461482
0.012538168
0.012570381
0.012551463
0.012158608
0.012057277
0.011979347
0.011870753
0.011751709
0.011650714
0.011580784
0.011530393
0.011496567
0.011475597
0.011470012
0.011478434
0.011479588
0.011411246
0.011269927
0.011113226
0.011093734
0.01191801
0.012558299
0.012880384
0.012864943
0.012843955
0.012816365
0.012777723
0.01276489
0.01283435
0.012895617
0.012922139
0.012932269
0.012938075
0.012943291
0.010950109
0.011003791
0.011126194
0.011322142
0.011560172
0.01179696
0.01200414
0.012176037
0.012315703
0.01240574
0.012421682
0.012276657
0.012427916
0.012473861
0.012491429
0.01203604
0.011997686
0.011933235
0.011836242
0.011717544
0.011602181
0.011513538
0.011451041
0.011407465
0.011378469
0.011366625
0.011369255
0.011338394
0.011252004
0.011122645
0.010937023
0.010882118
0.011126726
0.012764282
0.012710966
0.012745991
0.012823633
0.012877531
0.012900502
0.012908352
0.012912867
0.012918058
0.010904686
0.010954593
0.011068001
0.011262508
0.011514003
0.011767913
0.011990204
0.012169065
0.012301628
0.012352247
0.012285123
0.011997396
0.012184506
0.012355816
0.012322617
0.012230592
0.012152344
0.012065005
0.011970065
0.011894926
0.011858094
0.011783247
0.011695366
0.011583009
0.011461291
0.011355397
0.011278364
0.011223153
0.01118239
0.011167024
0.011177764
0.011171017
0.011061442
0.010931486
0.010713995
0.010686722
0.010658545
0.012609451
0.012735452
0.012813815
0.012859187
0.012877297
0.012881818
0.012884568
0.012889823
0.010862989
0.010909325
0.01101452
0.011205289
0.011472357
0.011744097
0.011979225
0.012159085
0.012270116
0.012255701
0.012079016
0.011770707
0.011834037
0.01205965
0.012022219
0.012029056
0.011987521
0.011893766
0.011799942
0.01172696
0.011688993
0.011660467
0.011611229
0.011521344
0.011409714
0.011295581
0.011193923
0.011109344
0.011047629
0.011030602
0.01105457
0.011002497
0.010804625
0.010677559
0.010492935
0.0105187
0.012647388
0.012743923
0.012802824
0.012839509
0.012851613
0.012851795
0.012852835
0.01285743
0.0108255
0.010868184
0.010966429
0.011154332
0.011437673
0.011726259
0.011968447
0.01213776
0.012204306
0.012097309
0.011830341
0.011509831
0.011389649
0.011413006
0.011479828
0.01155832
0.011632395
0.011506487
0.011365081
0.01138143
0.011452888
0.011447843
0.011426455
0.011405095
0.011325023
0.011197984
0.011088573
0.010987113
0.010888992
0.010823381
0.010614396
0.010495191
0.010352646
0.010367251
0.010408287
0.010455907
0.012530744
0.012656921
0.01274018
0.012789331
0.012817136
0.012822253
0.012817642
0.012815892
0.012818406
0.010792644
0.010831724
0.010924549
0.011113296
0.011411979
0.011713114
0.011951805
0.012091221
0.012081863
0.011864478
0.011462126
0.011231575
0.010940759
0.010817987
0.010815302
0.010923157
0.010946012
0.010601254
0.010466203
0.010635479
0.01092142
0.010735753
0.010517895
0.01021975
0.010265435
0.010702069
0.010627249
0.010584372
0.010112648
0.0099887254
0.010033538
0.010067841
0.0099960246
0.01017792
0.010341891
0.01247068
0.012572324
0.012667121
0.012730501
0.012771893
0.012790435
0.01278759
0.012777378
0.012770577
0.012769092
0.01076419
0.010800042
0.010889479
0.01108522
0.011395793
0.011700286
0.011919582
0.012003642
0.011900778
0.01160715
0.011206267
0.010864558
0.010462189
0.010173248
0.010133048
0.010259093
0.010247693
0.0099457348
0.0096930596
0.0097346347
0.0098896488
0.0099658605
0.0098820042
0.0096380478
0.0097547067
0.0097985963
0.0097993744
0.0098084335
0.0098214913
0.0098593687
0.0099215489
0.0099835494
0.010038311
0.010113335
0.010132152
0.012484287
0.012580727
0.012658633
0.012715909
0.012749085
0.012757266
0.012745342
0.012727695
0.012713168
0.01270547
0.010739053
0.01077295
0.010861816
0.011071818
0.011387202
0.011680761
0.011861784
0.011875309
0.011704065
0.011391474
0.011015442
0.010533808
0.010159067
0.0099777565
0.0098194948
0.0097596832
0.0097422222
0.009648158
0.0095253694
0.0094809234
0.0094913041
0.0095163228
0.0095258655
0.0095033911
0.0094934099
0.0095438952
0.0095787049
0.0096175475
0.0096553157
0.0096838843
0.0096889954
0.0098471512
0.0099465457
0.0099808797
0.0099087746
0.012383544
0.012477256
0.012570969
0.012645264
0.012695682
0.012718562
0.012714221
0.012691728
0.01266491
0.012640194
0.01262433
0.010716891
0.010750365
0.010844748
0.011069174
0.011380863
0.011646516
0.011773769
0.011726888
0.01153644
0.0112657
0.010985683
0.010596576
0.010361272
0.0094470534
0.0095714385
0.0097181224
0.0098160842
0.0099730808
0.010092835
0.0099867341
0.012381939
0.012467458
0.012556609
0.012626788
0.012667909
0.012677801
0.012659133
0.012623649
0.012584849
0.012549215
0.012523988
0.010697458
0.010732379
0.010838505
0.011072593
0.011368967
0.01158981
0.011657307
0.011574436
0.01139727
0.011186184
0.010981261
0.010735959
0.010593065
0.0091035929
0.0090983288
0.0092126885
0.0094547569
0.0097245968
0.009970059
0.010101198
0.010054954
0.012287332
0.012372467
0.012454598
0.012539112
0.012602349
0.012631161
0.012625488
0.01259037
0.012539363
0.012486448
0.012439018
0.012404141
0.01068061
0.010719309
0.010839942
0.01107727
0.01134297
0.011504324
0.011519671
0.01142368
0.011270629
0.011103184
0.010926466
0.010756988
0.010569824
0.010499254
0.0087965073
0.0088394413
0.0090152782
0.0097461987
0.009916879
0.010039005
0.010105766
0.010050373
0.012293316
0.012356878
0.012438974
0.012518356
0.012570823
0.01258471
0.012560869
0.012506887
0.012438088
0.012369492
0.012309419
0.012265387
0.010665784
0.010711396
0.010846084
0.011079832
0.011294261
0.011393017
0.011373566
0.011276636
0.011142248
0.010988344
0.010807741
0.010570813
0.010451083
0.010380384
0.0086964506
0.0086934628
0.0087422337
0.0089101954
0.0098522356
0.0099562642
0.010005959
0.0099507294
0.009825172
0.012192433
0.012279951
0.012344179
0.012421665
0.012494058
0.012532181
0.012528222
0.012483517
0.012408213
0.012319729
0.012234452
0.012161582
0.012109049
0.010650046
0.010705779
0.010858669
0.011069702
0.011219334
0.011266604
0.011224555
0.01112599
0.01099562
0.010837521
0.010646761
0.010413713
0.010285287
0.010226701
0.0086192866
0.0086380754
0.0086502567
0.0087047109
0.0098481148
0.0098658109
0.0097757321
0.0096126227
0.0094062295
0.012099811
0.012195952
0.012261436
0.012329092
0.012402258
0.01246454
0.012486355
0.012461603
0.012393238
0.012294252
0.012184505
0.01208204
0.011996738
0.011936916
0.010621237
0.010693955
0.01085993
0.011028271
0.011121126
0.011129145
0.011068455
0.010962112
0.010822911
0.01065191
0.010447889
0.010211404
0.010092735
0.0099971248
0.0085876464
0.0085997234
0.0085328691
0.0085066414
0.0096304623
0.0096384496
0.0095451253
0.0094430107
0.0099348172
0.012039168
0.012158754
0.012245262
0.012311794
0.012380559
0.012430299
0.012433591
0.012384965
0.012289921
0.012164766
0.012032221
0.011912275
0.011815371
0.011750268
0.010570841
0.010669865
0.010832671
0.010953187
0.011000492
0.010976687
0.010896694
0.010775288
0.010619259
0.010430319
0.010211554
0.0099720233
0.0098699821
0.0097428149
0.0098259744
0.0082176505
0.0085178806
0.0084444223
0.0082950193
0.0094220974
0.0099467871
0.011519012
0.011865812
0.012114287
0.012224186
0.012292095
0.01235643
0.012392218
0.012374558
0.012298538
0.012173031
0.012018335
0.011860818
0.011722651
0.011615074
0.011547381
0.010512137
0.010627118
0.010769492
0.010845933
0.010856177
0.010804276
0.010702455
0.010559979
0.01038177
0.010172911
0.009943499
0.009708871
0.009473558
0.0094549743
0.0094793726
0.0094670843
0.008141202
0.0082020739
0.0082060097
0.011608615
0.011796889
0.012062974
0.012196809
0.012269498
0.012329485
0.012351639
0.012310482
0.012202498
0.012040745
0.011850664
0.011663945
0.011505529
0.011387846
0.011319367
0.010445235
0.010557136
0.010664376
0.01070815
0.010686706
0.010607456
0.010480418
0.010313059
0.010113015
0.0098928142
0.0096717116
0.0094671224
0.0092867003
0.0091394991
0.0091685199
0.0091471273
0.0091475496
0.0081206284
0.0081148273
0.0081171744
0.0081183829
0.011155651
0.011597465
0.011745273
0.012002878
0.012160071
0.012242427
0.012300309
0.012310461
0.012243542
0.012096955
0.011889094
0.011652734
0.011429065
0.011248528
0.01112306
0.011055165
0.010366992
0.010459653
0.010529728
0.010543254
0.010491489
0.010383413
0.010228872
0.010038811
0.0098288412
0.0096193497
0.0094297754
0.0092675152
0.0091329135
0.0090237694
0.0089417504
0.0089234918
0.0089647039
0.0085760861
0.0083557028
0.0081253753
0.0081233583
0.0080943857
0.0080835254
0.011278039
0.011504418
0.011688664
0.011931929
0.012110867
0.012206411
0.01226501
0.01226916
0.012178498
0.011982782
0.011711607
0.011409978
0.011141835
0.010946403
0.010823734
0.010762
0.010275446
0.010339013
0.010373487
0.010354757
0.010271035
0.010132538
0.0099537056
0.0097546167
0.0095580526
0.0093817643
0.0092333745
0.0091111414
0.0090124122
0.0089339638
0.0088810161
0.0088747143
0.0088515318
0.0087026137
0.0083629767
0.0082395114
0.0081388811
0.0081138562
0.0080673336
0.0080552941
0.010901462
0.011125307
0.011358315
0.01160075
0.011847617
0.012040208
0.012152088
0.012219863
0.0122248
0.012123693
0.01186453
0.011499885
0.011109226
0.01080961
0.010628635
0.010526932
0.010479085
0.010170989
0.01019768
0.010201593
0.01014808
0.010029852
0.0098635459
0.0096746731
0.0094906524
0.0093283053
0.0091924859
0.0090807069
0.0089898529
0.0089179137
0.008863829
0.0088320229
0.0088201578
0.0087565076
0.0084712553
0.0083183912
0.0082234573
0.0081341417
0.0081216986
0.0081397208
0.0081372223
0.0080993722
0.0080477186
0.010456415
0.010516559
0.010539001
0.01105596
0.011415991
0.011733063
0.011938426
0.012071943
0.012157669
0.01217384
0.012070443
0.01176331
0.011248187
0.010768044
0.010494068
0.010367174
0.010319347
0.0103081
0.010059603
0.010055289
0.010026023
0.0099338987
0.0097809763
0.0095988617
0.0094235705
0.0092737402
0.0091501255
0.0090480076
0.0089635413
0.0088954977
0.0088430904
0.0088058116
0.0087751567
0.0087199717
0.0085713373
0.0083415522
0.008236767
0.0081571456
0.008122018
0.0081178623
0.008119699
0.0081227691
0.0081083045
0.0080771933
0.0080368038
0.0080012911
0.0099732069
0.0097635391
0.010099806
0.010608011
0.011070859
0.011502717
0.011782056
0.01195529
0.012069161
0.012108189
0.012017285
0.011679594
0.010977261
0.010461457
0.010268022
0.010214939
0.010204636
0.010208014
0.0099475761
0.0099257778
0.0098608618
0.0097293683
0.0095482488
0.0093698483
0.0092248665
0.009110632
0.0090172112
0.0089382474
0.0088727659
0.0088205711
0.0087803632
0.0087433675
0.0086838759
0.0085692468
0.0084084799
0.0082612322
0.0081863653
0.0081398513
0.0081222504
0.0081116046
0.0081005121
0.0080850751
0.0080645335
0.0080378717
0.008017541
0.0079903269
0.0079772339
0.0095706209
0.0095299255
0.009482
0.0097596282
0.010141911
0.010602352
0.011109724
0.011513117
0.011776287
0.011940604
0.012015781
0.011953482
0.011605923
0.010760888
0.010265217
0.010149794
0.010129222
0.01013308
0.010141876
0.0098492684
0.0098105879
0.0097162147
0.0095522886
0.0093559858
0.0091945741
0.0090791512
0.0089909002
0.0089170255
0.0088531359
0.0088000186
0.0087569071
0.0087168727
0.0086593847
0.0085582477
0.0084252699
0.0083005214
0.008204057
0.0081474116
0.008113237
0.0080937212
0.0080770649
0.0080588465
0.0080399484
0.0080177843
0.0079940291
0.0079693615
0.0079488763
0.007944683
0.0079381046
0.0079249587
0.0092569742
0.0091453101
0.0092995184
0.0095274368
0.0098146959
0.010182988
0.010649706
0.011121175
0.011496885
0.01174768
0.011880492
0.011862794
0.011541326
0.010640555
0.010175436
0.010086015
0.010076251
0.010083769
0.010093744
0.0097513905
0.0097045437
0.009592156
0.0094091605
0.0092111944
0.0090680349
0.0089732034
0.0089012808
0.0088391562
0.0087844382
0.0087377096
0.0086948899
0.0086402665
0.0085509291
0.0084300147
0.0083186473
0.0082274188
0.008156824
0.0081098652
0.0080787049
0.0080557262
0.008034821
0.0080136317
0.0079917995
0.0079694206
0.0079475387
0.007926779
0.0079077831
0.007884186
0.0078812229
0.0078549938
0.0078421459
0.0078131571
0.008822458
0.0090875216
0.0090235223
0.0091719767
0.0093670931
0.0096004225
0.0098919959
0.010265333
0.010702087
0.011131578
0.011473593
0.011686235
0.011731847
0.011469527
0.010584774
0.010134081
0.010051263
0.010041838
0.010047791
0.010056526
0.0096455067
0.0095980231
0.0094798157
0.0092927099
0.0091036563
0.0089756231
0.0088935402
0.0088312129
0.0087760461
0.0087258199
0.0086792341
0.0086260997
0.0085464268
0.0084336672
0.0083270903
0.0082425364
0.0081714011
0.008113649
0.0080714144
0.0080401386
0.0080142409
0.0079904823
0.0079672592
0.0079441119
0.0079211938
0.0078983282
0.0078737355
0.007844491
0.0078070739
0.0077887692
0.0077863033
0.0077848614
0.0077657688
0.0077401431
0.0087924033
0.008932339
0.0089437579
0.0090753825
0.009247332
0.0094504498
0.0096956379
0.0099976376
0.010360355
0.010762213
0.011144575
0.011431979
0.011554513
0.011380012
0.010582687
0.010125162
0.010038112
0.010021714
0.010022
0.010027478
0.0095236852
0.0094822282
0.0093702007
0.009193453
0.009021244
0.008905923
0.0088316127
0.0087745446
0.0087230641
0.0086732702
0.0086203649
0.0085488843
0.008442895
0.0083326264
0.0082518865
0.0081853051
0.0081250395
0.008073815
0.0080338251
0.0080016416
0.0079735605
0.0079477584
0.0079225718
0.0078965754
0.0078678109
0.0078361056
0.0078020262
0.0077723971
0.0077615614
0.0077586901
0.007759426
0.0077567407
0.0077489902
0.0077404589
0.007725424
0.0077111205
0.0079609022
0.0086278718
0.0088745863
0.0088924053
0.009002585
0.0091538757
0.009336816
0.0095536984
0.0098111535
0.010113643
0.010457998
0.010820729
0.0111433
0.011336205
0.011267418
0.010654511
0.010150538
0.010048151
0.010017059
0.010006708
0.010006462
0.0093812055
0.0093541564
0.0092616159
0.0091092182
0.008959012
0.0088542184
0.008784143
0.0087294157
0.0086789553
0.0086269913
0.0085648585
0.0084747537
0.0083564867
0.0082621237
0.0081976843
0.0081406297