/*--------------------------------*- C++ -*----------------------------------*\
  =========                 |
  \\      /  F ield         | OpenFOAM: The Open Source CFD Toolbox
   \\    /   O peration     | Website:  https://openfoam.org
    \\  /    A nd           | Version:  8
     \\/     M anipulation  |
\*---------------------------------------------------------------------------*/
FoamFile
{
    version     2.0;
    format      ascii;
    class       volScalarField;
    location    "10800/vegetation";
    object      T;
}
// * * * * * * * * * * * * * * * * * * * * * * * * * * * * * * * * * * * * * //

dimensions      [0 0 0 1 0 0 0];

internalField   uniform 297;

boundaryField
{
    left
    {
        type            mapped;
        field           T;
        setAverage      0;
        average         0;
        interpolationScheme cell;
        value           nonuniform List<scalar> 
690
(
300.34718
300.34735
300.3379
300.32774
300.29616
300.25451
300.21351
300.17906
300.15275
300.13429
300.1229
300.11733
300.11772
300.12142
300.1302
300.14397
300.16214
300.18492
300.21249
300.24472
300.28106
300.32089
300.36358
300.40846
300.45498
300.5027
300.55114
300.59992
300.64881
300.69762
300.74617
300.79435
300.84213
300.88954
300.9367
300.98378
301.03082
301.07892
301.13298
301.18261
301.23356
301.2861
301.34046
301.39675
301.455
301.51517
301.57735
301.6417
301.70831
301.77716
301.84838
301.92216
301.99869
302.07818
302.16085
302.24697
302.33686
302.43091
302.52956
302.63338
302.74268
302.85816
302.97921
303.10693
303.23723
303.37475
303.50342
303.64809
303.74817
300.34616
300.34504
300.32998
300.30801
300.27616
300.24609
300.22073
300.20117
300.1875
300.17955
300.17683
300.1786
300.18471
300.19541
300.21033
300.22966
300.25348
300.28181
300.31444
300.3509
300.39054
300.43276
300.47701
300.52271
300.5695
300.61708
300.66513
300.71342
300.76174
300.8099
300.85777
300.90529
300.95249
300.99948
301.04639
301.09352
301.14142
301.1877
301.24513
301.29634
301.34932
301.40428
301.46133
301.52043
301.58147
301.64435
301.7093
301.77658
301.84634
301.91871
301.99385
302.07193
302.1531
302.23754
302.3255
302.41727
302.51323
302.61379
302.71939
302.83037
302.94687
303.06876
303.19527
303.32526
303.45641
303.58685
303.71182
303.82963
303.92058
300.34614
300.34356
300.32539
300.30204
300.27978
300.26156
300.24796
300.23903
300.23447
300.23441
300.23789
300.24568
300.25732
300.27288
300.29245
300.31616
300.34408
300.37612
300.41194
300.45103
300.49279
300.53665
300.58203
300.62853
300.67597
300.72408
300.77257
300.82119
300.86975
300.9181
300.96618
301.014
301.06166
301.10931
301.1572
301.20545
301.25324
301.31162
301.36413
301.41862
301.47535
301.53441
301.59567
301.65891
301.72409
301.79149
301.86151
301.93433
302.01003
302.08867
302.1703
302.25495
302.34268
302.43362
302.52797
302.62598
302.72798
302.83431
302.94527
303.06101
303.18142
303.30594
303.43348
303.56238
303.69034
303.81465
303.93126
304.03401
304.10542
300.34636
300.34173
300.32414
300.30738
300.29487
300.28683
300.2828
300.28261
300.28535
300.2917
300.30124
300.31412
300.33041
300.35024
300.37377
300.40113
300.43233
300.46724
300.5055
300.5466
300.59002
300.63517
300.68162
300.72912
300.77744
300.82627
300.87534
300.92445
300.97344
301.02223
301.07081
301.11924
301.16769
301.21638
301.26552
301.31618
301.37344
301.42711
301.48299
301.54137
301.60239
301.6659
301.73166
301.79974
301.87056
301.9445
302.02166
302.10201
302.18547
302.27194
302.36132
302.45353
302.54856
302.64646
302.74732
302.85136
302.95878
303.06982
303.18462
303.30313
303.425
303.54943
303.67513
303.80025
303.92248
304.03887
304.14521
304.23424
304.29063
300.34685
300.34059
300.32794
300.31987
300.31699
300.31813
300.32235
300.3295
300.339
300.35103
300.36567
300.38309
300.4035
300.42711
300.4541
300.48457
300.51854
300.55583
300.59611
300.63889
300.68368
300.72996
300.77741
300.82581
300.87488
300.92434
300.97396
301.02356
301.07304
301.12234
301.17152
301.22068
301.27006
301.31995
301.37056
301.42115
301.48303
301.53967
301.59903
301.66136
301.72662
301.79463
301.86552
301.9397
302.01747
302.09886
302.18381
302.27211
302.36354
302.45784
302.55477
302.65415
302.75587
302.85991
302.9663
303.07516
303.18664
303.30083
303.41774
303.53718
303.65863
303.78116
303.90338
304.02342
304.13893
304.24694
304.34314
304.42039
304.46598
300.34798
300.34151
300.33702
300.33859
300.34487
300.35474
300.36659
300.38014
300.3953
300.41227
300.43129
300.45265
300.47664
300.5035
300.53343
300.56655
300.60284
300.64212
300.68406
300.72824
300.77416
300.82141
300.8697
300.91881
300.96848
301.01845
301.06854
301.11858
301.1685
301.2183
301.26806
301.31795
301.36824
301.41929
301.47189
301.5316
301.58828
301.64777
301.71048
301.77655
301.84595
301.91881
301.99546
302.07615
302.16091
302.24961
302.34199
302.4377
302.53632
302.63748
302.74083
302.84611
302.95317
303.06194
303.17241
303.28463
303.39869
303.5146
303.63228
303.75142
303.8714
303.99123
304.10946
304.2242
304.33313
304.43327
304.52048
304.58821
304.62615
300.34835
300.34678
300.35121
300.36332
300.3795
300.39723
300.41568
300.43475
300.45465
300.47574
300.4984
300.52303
300.54996
300.5795
300.61186
300.64713
300.68529
300.72617
300.76946
300.81475
300.86158
300.90959
300.95852
301.00816
301.05827
301.10864
301.15908
301.20947
301.25977
301.30999
301.36026
301.41078
301.46186
301.51382
301.56789
301.62945
301.68826
301.75034
301.81606
301.88559
301.95908
302.03683
302.11903
302.2057
302.29671
302.39177
302.49045
302.59224
302.6966
302.80303
302.91117
303.02072
303.13153
303.2435
303.35661
303.47088
303.58635
303.70298
303.82063
303.93892
304.05718
304.17433
304.28888
304.39888
304.50201
304.59543
304.67528
304.73575
304.76835
300.34987
300.35499
300.37217
300.39633
300.42158
300.44632
300.4703
300.49385
300.5175
300.5418
300.56729
300.59444
300.62366
300.65526
300.68946
300.72637
300.76596
300.80805
300.85235
300.89845
300.94594
300.99449
301.04386
301.09386
301.14429
301.19492
301.24561
301.29624
301.3468
301.39733
301.44798
301.49899
301.55071
301.6035
301.65666
301.72173
301.7823
301.84654
301.91482
301.98741
302.06461
302.14661
302.23341
302.32489
302.4208
302.52071
302.62406
302.73018
302.83844
302.94835
303.05954
303.17176
303.28485
303.39872
303.51335
303.62874
303.74487
303.8617
303.97903
304.09646
304.21325
304.32828
304.43993
304.54617
304.64466
304.73278
304.80709
304.86242
304.89151
300.35216
300.37012
300.4042
300.43968
300.4728
300.50313
300.53126
300.55802
300.58428
300.61081
300.63824
300.66712
300.69789
300.73089
300.76634
300.80435
300.84489
300.88778
300.93273
300.97936
301.02726
301.07612
301.12575
301.17596
301.22655
301.27732
301.32813
301.37889
301.42958
301.48029
301.53116
301.58248
301.63464
301.68795
301.74184
301.80798
301.86983
301.93566
302.0059
302.08087
302.16083
302.24584
302.3358
302.43049
302.52957
302.63254
302.73869
302.84724
302.95757
303.06926
303.182
303.29559
303.40987
303.52474
303.64016
303.7561
303.87253
303.98938
304.10643
304.22327
304.33913
304.45281
304.56256
304.66616
304.76128
304.84568
304.91634
304.96854
304.99556
300.36236
300.40535
300.45346
300.4972
300.53533
300.56893
300.59935
300.62781
300.65541
300.68307
300.7115
300.74126
300.77282
300.80651
300.84259
300.88114
300.92213
300.9654
301.01065
301.05749
301.10554
301.1545
301.20421
301.25447
301.30509
301.35587
301.40668
301.45744
301.50814
301.55887
301.6098
301.66121
301.71351
301.76755
301.82123
301.88786
301.95034
302.01702
302.08832
302.16448
302.24572
302.3321
302.42346
302.51952
302.61996
302.72416
302.8313
302.94062
303.05157
303.16383
303.27713
303.39126
303.50605
303.62136
303.73713
303.85331
303.96986
304.08671
304.20364
304.32021
304.43567
304.54876
304.65767
304.75986
304.85301
304.93544
305.00436
305.05516
305.08125
)
;
    }
    right
    {
        type            mapped;
        field           T;
        setAverage      0;
        average         0;
        interpolationScheme cell;
        value           nonuniform List<scalar> 
690
(
300.34523
300.34448
300.31881
300.28208
300.23274
300.18867
300.15328
300.12644
300.10686
300.09314
300.08404
300.07878
300.07581
300.07588
300.07759
300.08182
300.08857
300.09761
300.10899
300.12258
300.13825
300.15587
300.17539
300.19674
300.21989
300.2448
300.27144
300.29973
300.32958
300.36088
300.39349
300.42728
300.46218
300.49811
300.53503
300.57293
300.6118
300.6515
300.69178
300.7324
300.7731
300.8137
300.85405
300.89391
300.93317
300.97174
301.0096
301.04672
301.08309
301.11872
301.15359
301.18775
301.22114
301.25385
301.28576
301.31711
301.34754
301.37769
301.40666
301.43591
301.46336
301.49221
301.51795
301.54719
301.57074
301.60157
301.622
301.65621
301.67248
300.342
300.33542
300.3018
300.26621
300.2328
300.2045
300.18204
300.16513
300.15308
300.14511
300.14057
300.13887
300.13947
300.14208
300.1471
300.15444
300.16429
300.17669
300.1915
300.20857
300.22777
300.24901
300.27221
300.29731
300.32423
300.3529
300.38322
300.41505
300.44824
300.48265
300.51813
300.5546
300.59197
300.63016
300.66914
300.70887
300.7492
300.78982
300.83043
300.8708
300.91077
300.95027
300.98921
301.02727
301.06453
301.10101
301.13671
301.17166
301.20585
301.23931
301.27202
301.30401
301.33528
301.36585
301.39571
301.4249
301.45344
301.48146
301.50887
301.53589
301.56229
301.58855
301.61414
301.63994
301.66483
301.69053
301.71466
301.74165
301.76296
300.34229
300.32873
300.30029
300.27449
300.25282
300.23547
300.22225
300.21283
300.20677
300.20359
300.20302
300.20448
300.20807
300.21371
300.22148
300.23157
300.24413
300.2592
300.27668
300.29646
300.31843
300.34252
300.36864
300.3967
300.42662
300.45826
300.4915
300.52618
300.56212
300.59915
300.63713
300.67591
300.71539
300.75552
300.79623
300.83742
300.87885
300.92019
300.96115
301.00154
301.0413
301.08038
301.11866
301.15598
301.19239
301.22789
301.26251
301.29627
301.32918
301.36127
301.39256
301.42306
301.45277
301.48172
301.50992
301.53741
301.56435
301.59078
301.61667
301.64209
301.66706
301.69171
301.716
301.74007
301.76386
301.78783
301.81184
301.83664
301.86017
300.34415
300.32685
300.30739
300.29176
300.28002
300.27163
300.26606
300.26302
300.26227
300.26338
300.26638
300.27114
300.27763
300.28595
300.29626
300.30878
300.32365
300.34092
300.36058
300.38253
300.40672
300.43308
300.46152
300.49194
300.52423
300.55824
300.59383
300.6308
300.66898
300.70818
300.74824
300.78899
300.83032
300.87214
300.91432
300.95671
300.99903
301.04098
301.08234
301.12297
301.16284
301.20193
301.24015
301.27749
301.3139
301.34925
301.3836
301.41698
301.44941
301.48094
301.51158
301.54135
301.57026
301.59833
301.62559
301.65208
301.67788
301.70308
301.72774
301.75193
301.77572
301.79913
301.82221
301.84508
301.8679
301.89099
301.91441
301.93835
301.96133
300.34449
300.3307
300.32054
300.31446
300.31167
300.3112
300.3123
300.31493
300.31889
300.32405
300.33046
300.33819
300.34737
300.35816
300.37078
300.38545
300.40232
300.42149
300.44297
300.46674
300.49276
300.52097
300.55129
300.58363
300.61785
300.65381
300.69133
300.73022
300.77028
300.81133
300.85317
300.89565
300.93861
300.98192
301.02542
301.06888
301.11202
301.15456
301.19633
301.23724
301.27727
301.31642
301.35468
301.39208
301.42847
301.46377
301.49806
301.53126
301.56339
301.59452
301.62469
301.65393
301.68225
301.70968
301.73629
301.76212
301.78725
301.81175
301.83568
301.85909
301.88205
301.90466
301.92711
301.94963
301.9724
301.99553
302.01903
302.04279
302.06443
300.34537
300.33925
300.33901
300.34203
300.34768
300.35433
300.36151
300.36915
300.37727
300.38597
300.39542
300.40581
300.41737
300.43033
300.44496
300.46148
300.48006
300.50083
300.52384
300.54911
300.57662
300.60633
300.63818
300.67206
300.70784
300.74537
300.78446
300.82492
300.86655
300.90914
300.95249
300.99643
301.04079
301.0854
301.13004
301.17445
301.21833
301.26142
301.30357
301.34471
301.38484
301.42395
301.46208
301.49922
301.53535
301.57052
301.60459
301.63749
301.66929
301.70009
301.72988
301.7587
301.78658
301.81357
301.83974
301.86514
301.88985
301.91392
301.9374
301.96041
301.98309
302.00563
302.02822
302.05101
302.07413
302.09763
302.12144
302.14516
302.16564
300.34855
300.35208
300.36232
300.37542
300.38893
300.402
300.41442
300.42634
300.438
300.44968
300.46169
300.47432
300.48787
300.50264
300.51892
300.53694
300.55692
300.57898
300.60322
300.62969
300.65838
300.68927
300.7223
300.75738
300.79438
300.83313
300.87347
300.91517
300.95805
301.00188
301.04647
301.09161
301.13711
301.18278
301.22835
301.27354
301.31803
301.36156
301.40399
301.44526
301.48539
301.52439
301.56228
301.59908
301.63479
301.66943
301.70299
301.7355
301.76696
301.7974
301.82682
301.85527
301.8828
301.90946
301.93533
301.96048
301.98499
302.00892
302.03239
302.05551
302.07844
302.10134
302.12435
302.14762
302.17123
302.19519
302.21935
302.24301
302.26251
300.35304
300.37022
300.39313
300.41581
300.43656
300.45515
300.47188
300.48724
300.5017
300.51571
300.5297
300.54406
300.55915
300.57531
300.59283
300.61199
300.63301
300.65604
300.6812
300.70854
300.7381
300.76986
300.80376
300.83971
300.8776
300.91726
300.95852
301.00117
301.04499
301.08978
301.13531
301.18138
301.22777
301.27425
301.32054
301.3663
301.41119
301.45498
301.49753
301.53881
301.57885
301.61766
301.65527
301.6917
301.72697
301.76112
301.79418
301.82617
301.85715
301.88713
301.91617
301.94429
301.97157
301.99805
302.02382
302.04894
302.07349
302.09757
302.12128
302.14473
302.16806
302.19143
302.21495
302.23874
302.26284
302.28723
302.31166
302.33518
302.35381
300.3614
300.39769
300.43385
300.46536
300.49208
300.51487
300.53473
300.55251
300.56891
300.58453
300.59987
300.6154
300.63151
300.64857
300.66691
300.68681
300.7085
300.73215
300.75789
300.7858
300.81592
300.84823
300.88269
300.91921
300.95769
300.99795
301.03983
301.08311
301.12759
301.17303
301.21923
301.26596
301.31299
301.36005
301.40682
301.45291
301.49798
301.54181
301.58432
301.6255
301.66537
301.70395
301.74128
301.77736
301.81225
301.84599
301.87863
301.91022
301.9408
301.97044
301.99918
302.02708
302.05419
302.08059
302.10635
302.13155
302.15627
302.18059
302.20461
302.22844
302.25221
302.27603
302.30002
302.32425
302.34876
302.37345
302.398
302.42125
302.43902
300.38359
300.44193
300.48928
300.52683
300.55712
300.58223
300.60373
300.62275
300.64014
300.65655
300.67255
300.68863
300.70522
300.7227
300.74141
300.76163
300.78361
300.80753
300.83353
300.86168
300.89205
300.92461
300.95933
300.99614
301.0349
301.07546
301.11766
301.16128
301.2061
301.2519
301.29847
301.34556
301.39294
301.44033
301.48733
301.53353
301.57855
301.62227
301.66466
301.70571
301.74542
301.78382
301.82093
301.85678
301.89143
301.92492
301.95732
301.98868
302.01906
302.04852
302.07712
302.10492
302.13199
302.1584
302.18422
302.20953
302.23441
302.25894
302.2832
302.30731
302.33136
302.35546
302.37972
302.4042
302.42891
302.45372
302.47825
302.50118
302.51816
)
;
    }
    back
    {
        type            mapped;
        field           T;
        setAverage      0;
        average         0;
        interpolationScheme cell;
        value           nonuniform List<scalar> 
590
(
303.82091
303.99307
304.17724
304.36134
304.53561
304.69492
304.83652
304.95931
305.06317
305.14878
303.83233
304.00503
304.18995
304.37491
304.54989
304.70968
304.85156
304.97453
305.0785
305.16415
303.84705
304.02097
304.20742
304.39403
304.57043
304.73127
304.87386
304.99727
305.10149
305.18726
303.86462
304.04096
304.22987
304.41891
304.59738
304.75977
304.9034
305.02747
305.13206
305.218
303.88516
304.06515
304.2575
304.44978
304.63092
304.79527
304.94021
305.06508
305.17011
305.25625
303.90899
304.09391
304.29065
304.48692
304.67125
304.83787
304.98429
305.11003
305.21552
305.30183
303.93672
304.12778
304.32982
304.53073
304.71861
304.88767
305.03558
305.16214
305.268
305.35443
303.9692
304.16756
304.37562
304.5816
304.77317
304.94458
305.09379
305.22096
305.32702
305.41344
304.00759
304.21424
304.42879
304.6399
304.83491
305.00822
305.15825
305.28558
305.39149
305.47769
304.05348
304.26896
304.48997
304.70572
304.90335
305.0776
305.22748
305.35415
305.45932
305.54495
304.10859
304.33281
304.55957
304.77864
304.97718
305.15053
305.29852
305.42306
305.52639
305.61069
304.17456
304.40663
304.63737
304.85717
305.05353
305.22267
305.36549
305.47685
305.57584
305.65698
304.25289
304.49065
304.72204
304.93805
305.11858
305.27646
305.40642
305.51364
305.60382
305.67864
304.3446
304.58398
304.80208
305.00573
305.17592
305.31012
305.41184
305.49077
305.56372
305.62573
304.45
304.67502
304.88575
305.06481
305.19948
305.28325
305.31631
305.32398
297
305.39889
304.55866
304.77295
304.95472
305.08934
305.15653
305.14144
297
297
297
297
304.67982
304.85841
304.99074
305.05041
305.00734
297
297
302.28344
302.32398
302.38138
304.78998
304.91082
304.9658
304.9145
297
297
302.09631
301.85596
303.09033
303.38373
304.8564
304.89867
304.84867
297
297
302.09599
301.80983
303.00565
303.54616
303.76036
304.83985
304.79268
297
297
302.10496
301.84685
302.98024
303.53212
303.87684
304.07357
297
297
297
302.12434
301.88933
302.97006
303.47717
303.81229
304.00513
304.2109
297
297
297
301.93064
302.88394
303.34014
303.71762
303.90258
303.92172
304.20005
297
297
301.76677
301.63236
302.94999
303.40463
303.80178
303.96336
303.95005
304.21338
297
301.3978
301.2908
301.48369
302.91878
303.38208
303.76258
303.99971
304.0955
304.25904
297
301.15881
301.26466
301.40498
302.75112
303.26341
303.54708
303.84271
303.99312
304.13081
297
301.56495
301.69989
301.47492
301.56153
302.91682
303.35822
303.52566
303.62365
303.76068
297
297
297
302.2067
301.64668
301.69506
302.9706
303.171
303.23111
303.33078
297
297
297
297
302.55413
302.11859
301.73567
301.5976
301.56466
301.63942
297
305.29977
305.28232
297
297
297
302.81936
302.50995
302.46488
302.47511
305.43021
305.50552
305.55814
305.54681
305.46439
297
297
297
297
297
305.43401
305.54517
305.6438
305.71201
305.74905
305.7689
305.75378
297
297
297
305.25735
305.4581
305.61984
305.74638
305.84435
305.92085
305.98363
306.04789
306.10943
306.16311
304.95642
305.29657
305.52896
305.70634
305.83807
305.95258
306.04991
306.13685
306.21485
306.28286
304.64029
305.08926
305.38485
305.60648
305.78008
305.92118
306.04051
306.14385
306.23378
306.30275
304.3545
304.87143
305.21616
305.47687
305.67882
305.84105
305.9761
306.09093
306.18897
306.27206
304.09581
304.65199
305.02232
305.32402
305.55313
305.73541
305.88485
306.00987
306.1148
306.20211
303.86476
304.4272
304.82488
305.14476
305.39919
305.60138
305.76507
305.89987
306.01103
306.10973
303.67822
304.21524
304.61965
304.95708
305.23388
305.45595
305.6347
305.78
305.89789
305.992
303.50985
304.01247
304.41359
304.75857
305.05166
305.29136
305.48475
305.64064
305.76527
305.86272
303.35242
303.82017
304.21163
304.55529
304.85687
305.10962
305.31568
305.48142
305.61247
305.71301
303.20159
303.63628
304.01484
304.35159
304.65398
304.91373
305.12863
305.30217
305.43858
305.54166
303.05533
303.45916
303.82222
304.14914
304.44657
304.70745
304.92631
305.10424
305.24395
305.34858
302.91697
303.28885
303.63287
303.94814
304.23712
304.49468
304.71328
304.8918
305.03207
305.13686
302.78409
303.12485
303.44689
303.74781
304.02645
304.27789
304.49413
304.67142
304.81064
304.91484
302.65666
302.96731
303.2658
303.54877
303.81479
304.05805
304.27046
304.44637
304.58488
304.68878
302.5354
302.81678
303.09101
303.35368
303.60434
303.83711
304.04367
304.21702
304.35462
304.45807
302.41954
302.674
302.92393
303.16507
303.39837
303.61847
303.81703
303.98609
304.12161
304.22404
302.311
302.53997
302.76601
302.98536
303.2002
303.40601
303.59459
303.75752
303.88974
303.9906
302.21024
302.41561
302.61879
302.81695
303.01316
303.20374
303.38064
303.53566
303.66326
303.76198
302.11797
302.30176
302.48365
302.66218
302.84051
303.0155
303.17951
303.32511
303.44691
303.54291
302.03442
302.19892
302.36158
302.52268
302.68477
302.84449
302.99515
303.13043
303.24554
303.33838
301.95987
302.10739
302.25329
302.39931
302.54709
302.69274
302.83059
302.95555
303.06365
303.1531
301.89442
302.02726
302.15933
302.29248
302.42796
302.56133
302.68776
302.80325
302.90473
302.99092
301.83807
301.95829
302.0794
302.20219
302.32745
302.45061
302.5675
302.675
302.77086
302.85435
301.79082
301.90065
302.01303
302.12789
302.24515
302.36029
302.46971
302.571
302.66257
302.74411
301.75256
301.85423
301.96009
302.06909
302.18037
302.28955
302.39352
302.49037
302.57898
302.65929
301.72305
301.8188
301.92013
302.02508
302.13219
302.2373
302.33761
302.43155
302.51833
302.59795
301.7023
301.79426
301.89274
301.99519
302.09973
302.20236
302.30051
302.3928
302.47861
302.55793
301.69122
301.78099
301.87797
301.97921
302.08252
302.18401
302.28119
302.37277
302.4582
302.53745
)
;
    }
    front
    {
        type            mapped;
        field           T;
        setAverage      0;
        average         0;
        interpolationScheme cell;
        value           uniform 300.35;
    }
    bottom
    {
        type            mapped;
        field           T;
        setAverage      0;
        average         0;
        interpolationScheme cell;
        value           nonuniform List<scalar> 
11248
(
300.34718
300.34735
300.3379
300.32774
300.29616
300.25451
300.21351
300.17906
300.15275
300.13429
300.1229
300.11733
300.11772
300.12142
300.1302
300.14397
300.16214
300.18492
300.21249
300.24472
300.28106
300.32089
300.36358
300.40846
300.45498
300.5027
300.55114
300.59992
300.64881
300.69762
300.74617
300.79435
300.84213
300.88954
300.9367
300.98378
301.03082
301.07892
301.13298
301.18261
301.23356
301.28611
301.34047
301.39676
301.45501
301.51518
301.57736
301.64171
301.70831
301.77717
301.84839
301.92217
301.9987
302.07819
302.16086
302.24698
302.33687
302.43092
302.52957
302.63339
302.74269
302.85817
302.97922
303.10694
303.23725
303.37477
303.50344
303.6481
303.74819
300.35034
300.34429
300.3423
300.32446
300.29764
300.25577
300.21496
300.18067
300.15446
300.13608
300.12479
300.11943
300.11996
300.12392
300.13313
300.14731
300.16617
300.18991
300.21888
300.25269
300.29008
300.33054
300.37359
300.41859
300.46505
300.51254
300.56069
300.60918
300.65774
300.70616
300.75427
300.80198
300.84927
300.8962
300.9429
300.98957
301.03625
301.08404
301.13782
301.18723
301.238
301.29041
301.34467
301.40093
301.45928
301.51973
301.58232
301.64712
301.71423
301.7837
301.85561
301.93008
302.00727
302.08734
302.17051
302.25703
302.34723
302.44152
302.54033
302.64426
302.75364
302.86922
302.9904
303.11825
303.24864
303.38615
303.51479
303.65936
303.75994
300.35027
300.34447
300.3427
300.32586
300.30089
300.26007
300.21957
300.18518
300.15876
300.14019
300.12882
300.12365
300.12439
300.12879
300.13889
300.15391
300.17514
300.20184
300.23557
300.27321
300.31139
300.35269
300.39643
300.44149
300.48773
300.5348
300.58243
300.63024
300.678
300.72551
300.77262
300.81926
300.86545
300.91131
300.95698
301.00266
301.0485
301.09549
301.14854
301.19732
301.24755
301.29947
301.35333
301.40931
301.46751
301.528
301.59081
301.65597
301.72354
301.79356
301.8661
301.94125
302.0191
302.09982
302.18357
302.2706
302.36121
302.4558
302.55481
302.65884
302.76827
302.88387
303.0051
303.13308
303.26353
303.4009
303.52944
303.67378
303.77496
300.34991
300.34492
300.34335
300.32881
300.30659
300.26769
300.2277
300.19304
300.16609
300.14703
300.13535
300.13037
300.13147
300.13671
300.149
300.16605
300.19739
300.19192
300.22784
300.26898
300.35388
300.39708
300.44133
300.48344
300.52805
300.57386
300.62034
300.66652
300.71255
300.7583
300.80359
300.84839
300.89277
300.93685
300.98083
301.02492
301.06931
301.11496
301.16676
301.21444
301.26366
301.31467
301.36773
301.42302
301.48069
301.54084
301.60351
301.66871
301.73647
301.80682
301.8798
301.95547
302.03389
302.11517
302.19946
302.28698
302.37798
302.47285
302.57202
302.67609
302.78545
302.90094
303.02206
303.15006
303.28077
303.41812
303.54667
303.69081
303.79295
300.34927
300.34561
300.34404
300.33258
300.31378
300.27811
300.23923
300.20436
300.17667
300.15685
300.14456
300.14014
300.14209
300.1499
300.1698
300.16151
300.19688
300.26975
300.3346
300.35211
300.37893
300.41563
300.45852
300.55492
300.59786
300.64163
300.68532
300.72479
300.76597
300.80791
300.84992
300.8917
300.93322
300.9746
301.01605
301.05781
301.10017
301.14372
301.18598
301.23972
301.28741
301.33703
301.3888
301.44295
301.49964
301.55901
301.62109
301.68592
301.7535
301.82386
301.897
301.97296
302.05176
302.13349
302.21823
302.30617
302.39753
302.49266
302.59195
302.69602
302.80525
302.9205
303.04138
303.16918
303.30015
303.43777
303.56651
303.71052
303.81404
300.34855
300.34658
300.34433
300.33592
300.32143
300.29039
300.25363
300.21901
300.19057
300.1697
300.15668
300.15433
300.15966
300.14829
300.17315
300.2403
300.40063
300.94924
301.15074
300.62022
300.61235
300.59229
300.60828
300.63909
300.67704
300.71816
300.81222
300.8435
300.87838
300.91488
300.95197
300.98926
301.02676
301.06464
301.10311
301.14246
301.18326
301.223
301.2744
301.31995
301.36754
301.41744
301.46988
301.52506
301.58311
301.64412
301.7081
301.77507
301.84504
301.91801
301.99398
302.07295
302.15495
302.24004
302.32834
302.42003
302.51542
302.61487
302.71894
302.82802
302.94302
303.06357
303.19107
303.32198
303.46015
303.58929
303.73321
303.83856
300.34867
300.34645
300.34431
300.33855
300.32792
300.30339
300.26995
300.2365
300.20734
300.18515
300.17337
300.15684
300.16807
300.21737
300.31878
300.98424
301.56751
301.17075
300.85454
300.87383
300.85892
300.85843
300.95395
300.97525
301.00235
301.03223
301.0635
301.09567
301.12871
301.16275
301.19791
301.23522
301.27166
301.32
301.36261
301.40739
301.45462
301.50457
301.55756
301.61371
301.67308
301.73569
301.80156
301.87068
301.94309
302.01876
302.09766
302.17976
302.26509
302.3537
302.44572
302.54141
302.64107
302.74523
302.85425
302.96904
303.08928
303.21649
303.34718
303.48588
303.61562
303.75945
303.86708
300.34858
300.3466
300.34412
300.34037
300.33255
300.31529
300.28657
300.25571
300.22517
300.20404
300.18652
300.20897
300.3349
300.62155
301.65887
301.10753
301.04911
301.11191
301.11841
301.13611
301.15941
301.18461
301.21125
301.23958
301.26963
301.30225
301.34212
301.37863
301.41731
301.45835
301.50207
301.54881
301.59883
301.65229
301.70924
301.7697
301.83371
301.90135
301.97265
302.04761
302.12616
302.20819
302.29365
302.38254
302.47492
302.571
302.67103
302.77543
302.88452
302.99923
303.11927
303.24627
303.37678
303.51577
303.64633
303.79008
303.90038
300.34851
300.34662
300.34403
300.34106
300.33557
300.32397
300.30171
300.27416
300.2485
300.2337
300.27721
300.46443
301.28262
301.22729
301.2743
301.27534
301.28926
301.31031
301.32325
301.3409
301.36287
301.38581
301.42153
301.45222
301.48541
301.52124
301.56018
301.60266
301.64897
301.69924
301.75345
301.81153
301.87348
301.9394
302.00933
302.08326
302.16109
302.24275
302.32817
302.41732
302.5102
302.60689
302.70752
302.81243
302.92182
303.03647
303.15596
303.28214
303.41222
303.55123
303.68266
303.8263
303.93947
300.34859
300.34656
300.34429
300.3412
300.33744
300.32909
300.31454
300.29276
300.26204
300.28108
301.39791
301.70541
301.47499
301.48493
301.42308
301.40221
301.39219
301.48094
301.48604
301.49387
301.51783
301.53008
301.54888
301.57256
301.59994
301.63151
301.66773
301.70895
301.75511
301.8059
301.86102
301.9204
301.98422
302.05257
302.12539
302.20259
302.28398
302.36954
302.45914
302.5527
302.65017
302.75151
302.8571
302.96705
303.0821
303.20181
303.32793
303.45707
303.59485
303.72657
303.86986
303.98571
300.34871
300.34645
300.3444
300.34134
300.33818
300.33298
300.31971
300.30108
300.2705
300.41894
302.31015
301.94159
301.7579
301.66591
301.5969
301.60213
301.60163
301.59492
301.5811
301.58749
301.58872
301.67877
301.68338
301.69487
301.70969
301.72886
301.75646
301.78681
301.8252
301.87012
301.92036
301.97589
302.03678
302.10305
302.17446
302.25086
302.33206
302.41783
302.50799
302.60233
302.70074
302.803
302.90941
303.02011
303.13576
303.25603
303.38235
303.51207
303.64919
303.78008
303.92263
304.04044
300.3487
300.3465
300.34457
300.34145
300.33877
300.33407
300.32521
300.30562
300.27652
300.26543
302.45172
302.06038
301.98925
301.95894
301.90336
301.82682
301.76328
301.81084
301.83453
301.81936
301.8444
301.82265
301.80103
301.77875
301.77837
301.78508
301.79044
301.78872
301.80718
301.89578
301.92364
301.95887
302.00084
302.04584
302.10011
302.16226
302.23142
302.30676
302.38764
302.47361
302.56434
302.65951
302.75893
302.86225
302.96965
303.0813
303.19778
303.31881
303.44568
303.57614
303.71384
303.84484
303.98624
304.10465
300.34866
300.34655
300.34463
300.34164
300.339
300.33529
300.32591
300.3072
300.28359
300.25603
300.3855
302.2695
302.06658
302.04346
302.11443
302.10474
302.05081
301.96526
301.91601
301.94335
302.02909
302.04143
302.06051
302.05441
302.0272
302.01845
301.96938
302.0163
302.14507
302.13308
302.05234
302.00772
302.00017
302.01916
302.05708
302.15462
302.19233
302.24548
302.3076
302.3777
302.45537
302.53973
302.62997
302.72542
302.82556
302.92981
303.03831
303.15108
303.26849
303.39068
303.51857
303.65024
303.78865
303.92094
304.06195
304.1787
300.34864
300.34658
300.34472
300.34171
300.33914
300.33512
300.32631
300.30632
300.28897
300.2672
300.26812
300.79974
302.40573
302.14489
302.10714
302.1013
302.16799
302.30023
302.34122
302.26261
302.14615
302.06629
302.05525
302.09898
302.13294
302.14821
302.18566
302.26972
302.23589
302.1606
302.53677
303.55728
302.87388
302.47274
302.41478
302.28838
302.24143
302.30395
302.32916
302.38998
302.46216
302.53872
302.62121
302.70982
302.80427
302.90393
303.00832
303.1173
303.23086
303.34957
303.47325
303.60267
303.73647
303.8756
304.00893
304.1507
304.26186
300.34867
300.34657
300.34487
300.34168
300.3391
300.33422
300.32324
300.30462
300.30383
300.29272
300.30528
300.34762
302.48588
302.18069
302.1604
302.16686
302.19976
302.22248
302.32461
302.50555
302.64138
302.59455
302.45824
302.35324
302.28414
302.3008
302.29972
302.23113
302.24391
302.35084
302.38532
302.32998
302.77579
303.93424
302.80343
302.46852
302.47545
302.49562
302.55187
302.63008
302.71234
302.80032
302.89414
302.99341
303.09782
303.20714
303.32184
303.44193
303.56752