/*--------------------------------*- C++ -*----------------------------------*\
  =========                 |
  \\      /  F ield         | OpenFOAM: The Open Source CFD Toolbox
   \\    /   O peration     | Website:  https://openfoam.org
    \\  /    A nd           | Version:  8
     \\/     M anipulation  |
\*---------------------------------------------------------------------------*/
FoamFile
{
    version     2.0;
    format      ascii;
    class       volScalarField;
    location    "10800/buildings";
    object      pc;
}
// * * * * * * * * * * * * * * * * * * * * * * * * * * * * * * * * * * * * * //

dimensions      [1 -1 -2 0 0 0 0];

internalField   nonuniform List<scalar> 
3640
(
-8845108.8
-9437184.8
-9855987.8
-9822351.4
-9832502.5
-9675503.4
-8998584.5
-9033082
-9798666.7
-9864903.7
-9456190.4
-9338838.1
-9420728.7
-9396317.9
-9488714.5
-9031645.2
-9849029.2
-9947923
-9895826.9
-9615922
-9855124.5
-9859935.6
-9851719.7
-9367282.2
-9315124.2
-9335174.9
-9270710.1
-9527598
-9518704.2
-9523039
-9359926.7
-9496496.4
-9271538.3
-9391074.7
-9441940.7
-9226805.9
-9145306.7
-9190381.7
-9093249.9
-9588587
-9037993.3
-9540952.3
-9433417.1
-9197838.6
-9131423
-9401745.9
-9759048
-9610700.3
-9498119.3
-9505800.2
-9389996.6
-9389632.4
-9897357.8
-9899993
-9900872.5
-9648939.1
-9576377.7
-9652231.6
-9875199.3
-9505672.5
-9601736.5
-9560525.5
-9584138
-9648040.1
-9511022.8
-9536867.8
-9896352.6
-9864361.4
-9205115
-9564233.9
-9464458.8
-9141095.1
-9704568.2
-9481354
-9459957.1
-9467433.5
-9477994.9
-9672392.1
-9681823.8
-9675440.5
-9798070.4
-9503613.7
-9529825.7
-9774305.6
-9119587.9
-9146028.1
-9702701.5
-9538784.2
-9702940.2
-9581461.5
-9645389.6
-9593650.1
-9716260.2
-9508115.9
-9374523.8
-9430444.8
-9614080.3
-9670516.1
-9688056.4
-9452761
-9459011.3
-9771112.4
-9476340.2
-9742813.8
-9740185.6
-9754896.4
-9740740.7
-9737582
-9457982.4
-9526839.2
-9734536
-9357366.1
-9189051.2
-9797567.3
-9355492.7
-9823148.2
-9804481.9
-9447381.8
-9723316.9
-9702195.2
-9701871.1
-9312833.7
-9507679.2
-9624341.3
-9647147.7
-9582187.9
-9372648.2
-9392383.2
-9670235.1
-9636457.9
-9252824.9
-9714109.8
-8809199.5
-9787365
-9817592.2
-9481679.2
-9789862.8
-9501628.7
-9712867.9
-9589696.4
-9705481
-9558610.4
-8055248.8
-9709660.2
-9664470.4
-9382014.8
-9758145.3
-9502737.4
-9687093.6
-9302840.4
-9669599.2
-9672398.2
-9662643.6
-8954340.2
-8826433.8
-8932158
-8915655.6
-8882135.7
-8989770.4
-8749088
-9156330.6
-9668708.5
-8953374.3
-9735978
-9741288.6
-9706965.4
-9667139.8
-9735562.4
-9674670.2
-8925132.8
-8660856
-9707298.7
-9597585.5
-9138177.9
-9614637.8
-9128180.8
-9542396
-9456355
-9491449.4
-9410849.3
-9391626.7
-8936726.9
-9605572.6
-9469826
-9540065.1
-9400203.3
-9675210.9
-9666988.6
-9051883.6
-9393767.9
-9566513.3
-9511042.7
-9692639.7
-9552403.1
-9367917.2
-9622222.9
-9756814.9
-9749110
-9719478.7
-9660161.9
-8998551.2
-9513865.8
-9310335.1
-9144092
-9323289.2
-9392046.4
-9322844.6
-9195716.6
-9818891.4
-9820187.9
-9368140.3
-9787443.6
-9379378.7
-9748191.7
-9516978
-9747986.4
-9641000.4
-9657599.6
-9773217.6
-9850047.6
-9714130.3
-9739108.8
-9744336.5
-9746692.3
-9760328.2
-9775977.2
-9749972.9
-9775401.2
-8891449.3
-9280673.2
-9350275.9
-9368188.3
-8872965.3
-9529816.4
-9679834
-9078747.6
-8970301.1
-9763912.4
-9825417.7
-9324819.4
-9108812.6
-9033978.2
-9891121.5
-9931824.5
-9892960
-9640960.4
-9420856.9
-9364786.8
-9377068.3
-9316698.8
-9694076.4
-9139292.5
-9376996.4
-9749126.4
-9750257.4
-9853491.6
-9670747.8
-9254204.4
-9503489
-9854690.1
-9534750.1
-9662516.1
-9442505.6
-9445355.9
-9881435.1
-9834277
-9213498.4
-9620886.7
-9466021.3
-9142113.4
-9704519.5
-9543085.3
-9611335.1
-9769248.1
-9262540
-9232242.1
-9719961.2
-9510497.6
-9703566.2
-9500514.9
-9556534.4
-9473450.4
-9642422.9
-9500050.3
-9658487.2
-9740262.4
-9392212.7
-9458633.1
-9671281.6
-9146053.1
-9135474
-9818986.6
-9506144.4
-9816588.6
-9819162.9
-9478173.9
-9708872.8
-9710676.6
-9716360.9
-9250385.8
-9712724.5
-9619035.1
-9675037.4
-9609014.3
-9525813
-9655904.1
-9647219.2
-9681853.7
-9134078.5
-9651916
-9649517.9
-9755926.3
-9808895.5
-9366693.3
-9771451.9
-9448325.2
-9705953.7
-9579012.1
-8360129.9
-9570908.3
-7982404.2
-9615268.5
-9632159.5
-9591901.6
-8618469.6
-8721217.6
-9122333.6
-8986507.5
-9743891.6
-9684916.2
-9735082.6
-9655764.4
-8853520.3
-8835195.9
-9690930
-9575107.2
-8993422.1
-9590702.9
-9145089.9
-9604498.4
-9513016
-9465391.5
-9366114
-9412964.3
-8951327.6
-9538576.9
-9645399.9
-9504010.7
-9414603.7
-9689124.3
-9723797.3
-9526919.6
-9068037.8
-9334615.3
-9374668.3
-9813550.6
-9812462.9
-9235701.6
-9781581.3
-9199094.2
-9718379.5
-9458724.4
-9771183.2
-9688139.8
-8844073.6
-9436621.6
-9855612.4
-9822413.9
-9832236.3
-9675541.3
-8996603.5
-9032786.8
-9798563.1
-9865157.3
-9456198.6
-9338111.8
-9419516.3
-9394771.5
-9487705.3
-9030533.6
-9848641
-9947857.5
-9896217.7
-9615983.3
-9855026.9
-9859817.6
-9851458.1
-9366598.3
-9313784.5
-9333939.9
-9268666.1
-9527523.7
-9518016.1
-9523051.4
-9359079.9
-9496186.8
-9270120.4
-9390199.3
-9441361.5
-9224910.2
-9142415.8
-9187858.1
-9090422.6
-9587914.1
-9037560.1
-9541072.4
-9432617
-9195670
-9129977.7
-9401145.2
-9759036.5
-9610967.6
-9497092.8
-9504385.1
-9388843.2
-9388084.1
-9897169.1
-9900747.7
-9900746.5
-9648716.2
-9575791.5
-9651584.1
-9876076.2
-9504185.5
-9600435.5
-9560012.8
-9582913.5
-9648452.1
-9511500.3
-9537009.9
-9896343.1
-9864187.7
-9206175
-9564131.3
-9464198.5
-9141179.1
-9704889
-9482878.4
-9461179.7
-9468693.6
-9479581.4
-9672448.1
-9681903.8
-9675721.7
-9798359.3
-9503571.4
-9529961.3
-9774366.3
-9119241.1
-9145546.3
-9703388.8
-9538545.9
-9703064.6
-9582433.3
-9645323.4
-9593512.9
-9716151.6
-9509218.7
-9375275.7
-9431168
-9614365.6
-9670510.9
-9687994.2
-9452215.4
-9458686.3
-9771048.1
-9475991.4
-9742648.6
-9740027.6
-9754788.4
-9740634.2
-9738426.2
-9457855.1
-9526429
-9734396.4
-9357036.2
-9187879.9
-9797148.2
-9355007
-9822990
-9804191.9
-9446405.9
-9723350.1
-9701924.1
-9701860.9
-9313477.7
-9510029.6
-9624215.1
-9647388.5
-9582239.9
-9375310.9
-9394208.5
-9669955.1
-9636165.5
-9251725.9
-9713980.9
-8806780.2
-9787222.8
-9817639.4
-9481271
-9789944.5
-9500897.7
-9712914.1
-9590127.3
-9704894.9
-9559009.2
-8052540.4
-9709719.3
-9664439.4
-9382337.6
-9757778
-9502230.6
-9686887.2
-9301094.7
-9669627.4
-9672639.4
-9662901.1
-8951928.3
-8822718.7
-8930221.4
-8913306.7
-8880101.2
-8988065.7
-8748022
-9155004.4
-9668384.1
-8953410.5
-9735923.9
-9741215.9
-9706948.9
-9667097.7
-9735453.1
-9674701.6
-8922972.2
-8658140.8
-9707581.9
-9597670.1
-9138028.8
-9614371.1
-9125952.6
-9542267.5
-9456142.6
-9491809.4
-9410963.7
-9391231.2
-8934726.6
-9605394.2
-9469816.8
-9540325.1
-9400279.2
-9675647.9
-9667158.7
-9048364
-9393575.5
-9567083.1
-9511873.9
-9692301.7
-9552637.6
-9368412.1
-9622317
-9756788.2
-9749105.2
-9719466.7
-9659328.6
-8996700.6
-9513471
-9309762.5
-9141684.7
-9321901.4
-9390547.4
-9320609
-9192795.1
-9818666.6
-9819999.8
-9367308.8
-9787521.9
-9378663.5
-9748221.8
-9517202
-9747610.2
-9640502.7
-9657375.8
-9772892.9
-9849840.3
-9713939
-9738775.1
-9743930.8
-9746290.8
-9760190
-9775693.7
-9749861.4
-9775174
-8886780
-9278442.6
-9348610.2
-9366646.7
-8872083.6
-9529035.8
-9679759.1
-9076126.7
-8969477.5
-9764141.9
-9825745.7
-9324586.5
-9107103.4
-9032397.7
-9890852.3
-9931749.4
-9893157.7
-9640897.1
-9420375.3
-9363740.6
-9376409.5
-9315142.9
-9694624.8
-9138908.1
-9375788.5
-9749100.8
-9750112.1
-9853106.7
-9670381
-9252733.8
-9502153
-9854644.7
-9533483.7
-9663021.5
-9442938.5
-9444130.8
-9881226.6
-9834199.4
-9213932.2
-9620647.9
-9466222.2
-9141607.9
-9704959.6
-9543031.2
-9611275.3
-9770529.5
-9262181.9
-9232183.7
-9720818.1
-9510446.7
-9704180.8
-9500611.8
-9556603.7
-9473280.8
-9642385.2
-9501338
-9658468.7
-9740913.8
-9392900.7
-9458325.9
-9671380.6
-9145065.1
-9134402.3
-9818847.7
-9506304.2
-9816692
-9818897.1
-9477226.2
-9708692.4
-9710424.1
-9716382.4
-9250683
-9712470.6
-9618937.9
-9675163.7
-9608922.3
-9527061
-9655596.6
-9647228.2
-9681461.8
-9132654.1
-9651437
-9648812.3
-9755573
-9808858.9
-9365861
-9771189.4
-9447310.3
-9706051
-9579261.3
-8356321.4
-9570884.6
-7980149.4
-9615103.1
-9632291.8
-9592032.7
-8615351.8
-8719357.1
-9122372.7
-8985891.4
-9743755.8
-9684564.7
-9734897.8
-9656052.6
-8851679.7
-8832939.7
-9690631.2
-9575043.6
-8992911.1
-9590231.1
-9143020.3
-9604370.6
-9513033.2
-9465641.7
-9366077.7
-9412527.1
-8949494
-9538403.4
-9645180.2
-9504257.9
-9414126
-9688877
-9723698.2
-9526420.2
-9064339.4
-9332847
-9372735.4
-9813205.8
-9812122.3
-9234687.2
-9781316
-9197742.8
-9717732.6
-9458642.5
-9770936.8
-9688161.7
-8858886.9
-9440555.5
-9855002.8
-9822261.1
-9831592.8
-9678501.1
-9001561.5
-9039618.9
-9798833.8
-9865214.9
-9458799.3
-9340533.1
-9421113.8
-9397051.7
-9490253.8
-9040884.7
-9848003
-9947715.6
-9896512.3
-9617533.8
-9854563.4
-9859411
-9850601
-9377772.7
-9327018.8
-9346814.5
-9283896.8
-9533622.1
-9523630.3
-9528976.7
-9366979
-9500514
-9280810.1
-9398992.4
-9449141.7
-9237895.4
-9160773.4
-9204839.3
-9107207.5
-9588008.8
-9040419.8
-9541735.7
-9434773.2
-9197081.9
-9134938.5
-9405375.3
-9759893.2
-9614281.7
-9497550.2
-9505679
-9390884.2
-9390939.5
-9895924.5
-9900710.6
-9899723.6
-9649620.8
-9579181.8
-9656312.4
-9876367.4
-9506268.6
-9601679.5
-9561283.1
-9584856.7
-9650133.5
-9516431.5
-9540387.6
-9896752.2
-9863674.6
-9212412.3
-9565265
-9467221.9
-9144674.4
-9705197.1
-9486633.8
-9464982.2
-9472120.4
-9483101.6
-9673005.1
-9682349.1
-9676461.5
-9798035.8
-9505642.6
-9533029
-9774336.4
-9120652.3
-9149937.2
-9704325.7
-9540229.3
-9704172.7
-9583838.9
-9647533.8
-9594871.4
-9716497.6
-9512443.7
-9379382.5
-9435509.3
-9615690.9
-9670985.4
-9688495.1
-9455086.2
-9461270.9
-9770782.6
-9478248.6
-9742726.5
-9740455.7
-9755098
-9741275.3
-9739799
-9462251
-9530118.8
-9734821
-9358443.1
-9193122.8
-9797210.3
-9359873.7
-9822803.9
-9804507.2
-9448135.5
-9724063.1
-9702497.1
-9702580.9
-9317807.8
-9514577
-9625819.6
-9648691.7
-9583591.2
-9381796.5
-9398522.6
-9671367.8
-9638141.6
-9256085.8
-9714509.6
-8812919.5
-9787089.6
-9817624.3
-9483304.6
-9789879.4
-9501890.6
-9713890.9
-9592842.4
-9704539.4
-9561265.7
-8071116.6
-9710655.8
-9665949.7
-9389001.3
-9757185
-9504607.5
-9689045.3
-9302057.3
-9671679.8
-9676703.9
-9666475.9
-8964057.1
-8839518.5
-8939719.8
-8922916.2
-8897212.1
-9001147.2
-8764635
-9165145.4
-9668421.1
-8960741.4
-9737305.9
-9742423.7
-9707298.3
-9667941
-9735497.6
-9678746.1
-8927488.3
-8662933.1
-9708377.7
-9598605.2
-9141576.4
-9614852.3
-9129582.9
-9544364.1
-9456945.5
-9492334.3
-9412030.6
-9392312.6
-8948644.8
-9605605.7
-9470145.3
-9540330.4
-9405231.7
-9679893.5
-9669757.3
-9064342.6
-9394763.8
-9572891.1
-9519051.1
-9693789.1
-9557242.6
-9375130.4
-9624386.1
-9757447.7
-9749595.1
-9720360.3
-9659600
-9002771.1
-9514863.1
-9315903.6
-9152794.2
-9324543.4
-9393361.5
-9327385.1
-9206206.8
-9818640.7
-9819864.3
-9369446.7
-9787759.4
-9381280.5
-9748540.1
-9518005.6
-9748051.1
-9641184.4
-9660151.3
-9774664.7
-9849926.7
-9714505.2
-9740484.9
-9745991.9
-9748463.8
-9760389.2
-9776951.8
-9749918
-9775643.5
-8913414.5
-9287108.8
-9350959.4
-9371190.2
-8880235.4
-9531659.3
-9680984.7
-9081856.4
-8980325.1
-9764696.4
-9826134.1
-9332260.2
-9111541.1
-9047555.3
-9889789.7
-9931663.3
-9893220
-9643496.3
-9430278.6
-9375864.5
-9387729.1
-9328692.8
-9694763.7
-9142376.3
-9377946.7
-9749553.3
-9750168.1
-9851902.9
-9671726.7
-9268386.5
-9504210.8
-9854103
-9534564.1
-9665819.6
-9449650.6
-9448468.9
-9880790.3
-9834073.7
-9218875.6
-9621396.5
-9470999.4
-9146683.4
-9705566.2
-9546153.5
-9612985.7
-9771744
-9265562.4
-9235007.5
-9722110.9
-9513739
-9704982.7
-9503624.9
-9559286.6
-9475606.6
-9643327.5
-9504249.1
-9659272.7
-9742048.9
-9401252.2
-9462792.1
-9671911.4
-9149787.7
-9137724.4
-9818582.1
-9509033.4
-9816582.2
-9818822.6
-9478676.1
-9709655
-9711172.8
-9717137.3
-9256150.3
-9712895.9
-9620875.1
-9676182
-9610423.1
-9530632.7
-9656398.6
-9649913.9
-9682601.5
-9139864.2
-9652796.3
-9649483.2
-9755978.8
-9808983.2
-9369754
-9771210.5
-9448468.2
-9707456.2
-9582049.1
-8384809.8
-9572826.2
-7999919.6
-9617292.7
-9634606.8
-9595437.2
-8634099.8
-8726157.2
-9138991.9
-9000264.5
-9744775.2
-9685247
-9735035
-9661806.5
-8860485.7
-8838196
-9691011.5
-9575899.6
-8996755.3
-9590507.9
-9146284.1
-9606854.1
-9513918.7
-9466307.4
-9368296.9
-9412830.6
-8962601.8
-9542793.2
-9645817.6
-9507622.7
-9417336.2
-9689635.4
-9724096.6
-9528667.9
-9069708.8
-9337647.8
-9378989.2
-9813405.4
-9812297.3
-9238265.1
-9781291.3
-9202964.8
-9717428.4
-9459162.3
-9771259.3
-9692540.8
-8895768.3
-9450643.5
-9854758.8
-9822306.4
-9831433.9
-9685474.8
-9015909.1
-9057215.9
-9799857.7
-9865245.8
-9465772.3
-9347049.8
-9426418.3
-9404282.6
-9497592.6
-9067297.2
-9847256
-9947575.9
-9896902
-9621470.8
-9854255.3
-9858900.5
-9849657.2
-9406075.5
-9360325.3
-9378809.9
-9321766.7
-9549777.8
-9538132
-9544839.1
-9387896.6
-9512501.9
-9308374.2
-9421235.4
-9468516.1
-9270370.8
-9206653.6
-9247222.9
-9148792.8
-9589629.9
-9047978.3
-9543356.3
-9440844.6
-9203149.4
-9149023.9
-9417258.7
-9762700.5
-9622346.5
-9499821.4
-9510156.2
-9397343
-9399496.4
-9893850.5
-9899976.9
-9897791.5
-9652535.5
-9588061.3
-9668070.7
-9876127.3
-9512788.7
-9605912.5
-9564823.9
-9590792.7
-9654070.7
-9528417.1
-9548964.5
-9897507.8
-9862924
-9227605
-9568126.9
-9475508.2
-9153120
-9705592.4
-9494287.3
-9473015.7
-9479133.6
-9490108.1
-9674573.7
-9683826.7
-9678196.4
-9797553.8
-9511008.9
-9541039.3
-9774695.3
-9124724.9
-9161542
-9706046.4
-9544711.5
-9706931.5
-9586055.8
-9653670.2
-9598725.9
-9717772.9
-9519308.5
-9388464.8
-9445512.6
-9618774.1
-9672566.7
-9690496.7
-9462606.2
-9467926
-9770693.7
-9484024.6
-9743399.7
-9741944.7
-9756151.6
-9743178.1
-9742262.1
-9472763.5
-9539855.4
-9736368.8
-9362312.5
-9206909.8
-9798084.8
-9372234.8
-9822893.8
-9805870.7
-9453314.6
-9726031.8
-9704525.9
-9704707.4
-9327757.5
-9522882.2
-9630208.9
-9651856.2
-9587364.5
-9394360.9
-9406895.2
-9675349.5
-9643306.3
-9268281
-9716288.2
-8830673.7
-9787368.8
-9817818
-9489117.4
-9790060.6
-9505181.6
-9716438.8
-9598861.4
-9705292.6
-9566654.8
-8118830
-9713173.6
-9669833.7
-9404275
-9757022.7
-9510813
-9695201.4
-9308097
-9676868.6
-9686519.8
-9674741.1
-8996513.7
-8882852.2
-8965172
-8948691.2
-8939484.1
-9035051.9
-8804998.9
-9192013
-9669612.9
-8979225.1
-9741056.3
-9745857.4
-9708375
-9670553.2
-9736020.4
-9688549
-8941190.7
-8678071.5
-9710016.1
-9600898.8
-9150613.4
-9616382.8
-9140813.4
-9549505.1
-9459269.2
-9493530
-9414701.8
-9395538.2
-8984662.9
-9606817.4
-9471582.4
-9540764
-9416655.3
-9689202.3
-9675860.7
-9104358.7
-9398009
-9585982.9
-9534980.7
-9698376.5
-9568108.5
-9390337.2
-9629259.8
-9759349.6
-9750967.7
-9722713.9
-9661397.8
-9019372.8
-9518759
-9332437.1
-9181290.1
-9332636.8
-9401813.4
-9346671.7
-9240996.3
-9818950.6
-9820065.5
-9375639
-9788167.1
-9388676.6
-9749309.8
-9519719.7
-9749610.7
-9643518.2
-9667138
-9779494.3
-9850988
-9716061.3
-9744891.5
-9752068.5
-9754867.9
-9761527.1
-9780726.7
-9750413.5
-9777831.8
-8976382.7
-9310321.6
-9358606.2
-9384161.3
-8901477.8
-9539216.2
-9684226
-9098623.9
-9007424.2
-9766076.6
-9826764.8
-9350663
-9124162.8
-9086096.3
-9888193.6
-9931688.9
-9893004.8
-9650187.2
-9455145.2
-9405989
-9415915.3
-9362523.9
-9695641.1
-9151301.2
-9384578.3
-9750958.5
-9750638
-9850529.4
-9676173.5
-9304769.2
-9510563.8
-9853103
-9538451.7
-9672954.2
-9466002
-9460363.9
-9880351.7
-9833839.7
-9230907.4
-9623575.7
-9484336.9
-9160044.5
-9706706.8
-9554162.5
-9617671.2
-9773313.2
-9274313.8
-9242150.4
-9724542.9
-9522223.8
-9706124
-9511738.5
-9566009.7
-9481623.5
-9645871.4
-9510104.1
-9661693.3
-9744248.4
-9419753.3
-9473796.5
-9673153
-9162582.5
-9147132.5
-9818478.9
-9515637.8
-9816591.8
-9819218
-9483190
-9712555.1
-9713589.5
-9719397.6
-9269090.9
-9714317.4
-9626168.6
-9678862.1
-9614797.5
-9537970
-9658821.3
-9656463.7
-9686062.8
-9159323.7
-9656930
-9652137.7
-9757751.8
-9809584.3
-9380556.3
-9771902.6
-9452491.9
-9711049.3
-9588577.3
-8453969.6
-9578060.5
-8050068.2
-9623134.4
-9640115
-9603554.1
-8681202.8
-8745274.9
-9176900.6
-9037168.3
-9748098.8
-9688130.4
-9735881.8
-9674705.8
-8883706.1
-8853777.1
-9692487.7
-9578134.8
-9006875
-9591815.8
-9156525.8
-9613189.2
-9516258.9
-9468140.9
-9373905.2
-9414251.8
-8996377.2
-9553246.6
-9647644.1
-9515389.5
-9425945.2
-9691894.2
-9725422.8
-9534894.1
-9086515.1
-9351657.9
-9396368.7
-9814466.5
-9813401.3
-9248228.2
-9781616.9
-9217343.8
-9717621.5
-9460624.8
-9772546.1
-9703012.4
-8960295.5
-9469595
-9856070.4
-9823414.6
-9833316.2
-9697951.6
-9042695.2
-9090269.4
-9802676.3
-9865599.2
-9479848.7
-9359761
-9437346.8
-9418195.6
-9512012.1
-9114431.2
-9848521.2
-9947604.5
-9897755.4
-9629419.9
-9855066.4
-9858933.9
-9849951.5
-9455401.1
-9416883
-9433053.1
-9384745.8
-9580269.9
-9564822.3
-9575174.7
-9426434.4
-9536617.1
-9356898.5
-9460620.4
-9503098.6
-9325657.3
-9282356
-9317485.5
-9218044.3
-9592894
-9062376.7
-9546705.6
-9452790.9
-9215233.5
-9176618.6
-9441397.5
-9769418.2
-9637369.7
-9504509.3
-9518916.6
-9410295.8
-9416277.4
-9891674.8
-9898666
-9895610.7
-9658772.1
-9604506.3
-9688026.7
-9875582.6
-9525297.1
-9614406.1
-9571739.3
-9602441.7
-9662010.1
-9551347.8
-9565634.3
-9899067.2
-9862365.2
-9257462
-9573491.8
-9492117.2
-9168972.5
-9706296.1
-9508254
-9487839.8
-9491853.7
-9502797.5
-9678278.1
-9687792.3
-9682056.3
-9797867
-9521654.5
-9556955.7
-9776572.6
-9132955
-9184054.1
-9709466.7
-9553427.6
-9712653.6
-9589691
-9666095.6
-9606774.5
-9720973.5
-9532195.6
-9405189.3
-9464484.1
-9624900.9
-9676617.4
-9695905.4
-9477106.5
-9480906.1
-9771623.1
-9495130.4
-9745550.9
-9745500.7
-9758706.5
-9747361.1
-9746600.7
-9491073.2
-9558276.1
-9740295.5
-9369656.8
-9232361.1
-9800613.9
-9395683.6
-9824000.9
-9809249.8
-9463438.2
-9730476.4
-9709201.6
-9709627.9
-9346456
-9536857.6
-9639099.2
-9658272.4
-9595697.1
-9416011.6
-9421529.3
-9683287.1
-9652969.5
-9291987.1
-9720476
-8864181.8
-9789064.2
-9818905.1
-9501337.5
-9791324.1
-9512166.8
-9721803.7
-9609719.2
-9708708
-9576974.3
-8203544.1
-9718544.5
-9677331.8
-9430243.5
-9758478.3
-9521920.7
-9707557.3
-9322858.8
-9686866.1
-9703969.7
-9689206.6
-9054713
-8956530.1
-9011869.3
-8995080.6
-9011417
-9095553
-8874427.8
-9240756.5
-9673329.7
-9014231.4
-9748628.5
-9753070.4
-9711076.7
-9676685
-9737805.3
-9705817
-8966779.6
-8706540.4
-9713163
-9605562.8
-9167868.8
-9619487.5
-9162175
-9558675.7
-9463876.7
-9496426.5
-9420128.3
-9401620.6
-9048454.4
-9610158.7
-9475715.9
-9543115.5
-9436212.3
-9704838.9
-9687065.9
-9171091.6
-9404069.7
-9608117.1
-9561719.1
-9707968
-9587116.2
-9416175.3
-9638108.2
-9763585.9
-9754014.1
-9727488
-9665721.8
-9050065.2
-9526573.4
-9363781.3
-9230619
-9348819.5
-9418348
-9382438
-9300310
-9820062.6
-9821383.6
-9387847.8
-9788967.5
-9403325.4
-9750896.3
-9522885.2
-9752936.7
-9648288.9
-9679886.1
-9788770.1
-9854206.7
-9718963.7
-9752936.4
-9764092.4
-9767483
-9764943
-9788503.7
-9752101.6
-9783608.8
-9074543.5
-9351737.8
-9373993.7
-9409130.8
-8940675.5
-9553742.2
-9690511.5
-9129241.2
-9056033
-9769268.3
-9828480.6
-9382322
-9147647.2
-9153213.2
-9887051.9
-9932094.9
-9893061.7
-9663289.3
-9498925.8
-9457259.8
-9464597.1
-9419513.9
-9696787.3
-9168186.1
-9397598.3
-9754279
-9752085.9
-9850625.7
-9685869.2
-9362427.7
-9522416.1
-9852031.2
-9546124
-9687419.1
-9496010.4
-9482057.6
-9880588.8
-9834214.2
-9254395.5
-9628024.8
-9511506.6
-9186234
-9708860.4
-9569603.1
-9627333
-9775823.5
-9291376.3
-9255916.2
-9729159.8
-9538668
-9707852
-9528389.9
-9578745.8
-9493023.9
-9651137.8
-9520871.8
-9667297.9
-9748417.7
-9450409.3
-9493630.5
-9675685.2
-9186702.9
-9165190
-9819241.2
-9528336.2
-9817444.4
-9820858.8
-9492180
-9718912.1
-9718901.5
-9724757.6
-9292968.4
-9717407.8
-9636883.2
-9684619
-9624336.6
-9551244.3
-9663759
-9668383.9
-9693199
-9195635.5
-9665341.5
-9657764
-9762206.3
-9811419.6
-9401906.6
-9774249.7
-9460954.1
-9718265.2
-9600469.4
-8568549.7
-9588579.4
-8138823.8
-9634538.1
-9650191.1
-9618063.7
-8761724
-8781709.7
-9238983
-9103673.2
-9755654.8
-9695185.2
-9738316.9
-9695952.4
-8925007.4
-8882981
-9695745.1
-9582591.8
-9026049.6
-9594581.3
-9176253
-9624996.3
-9521145.2
-9472661.1
-9384651.3
-9417274.3
-9056283.6
-9571462.7
-9651053.9
-9528962.1
-9442172.5
-9696562
-9728562
-9547328.4
-9117394.3
-9378708.4
-9428341.9
-9817120.1
-9816388.4
-9267192.4
-9782520.7
-9244704
-9718576
-9463475.5
-9775722.1
-9721147.9
-9053478.4
-9498742.5
-9860216.1
-9827004.7
-9838892.8
-9716592
-9084535.5
-9142899.2
-9808548.4
-9866892.3
-9504024.2
-9381227.7
-9456082.6
-9440764.1
-9535656.8
-9184092.1
-9852938.3
-9948131.5
-9899596.1
-9643233.7
-9858250.4
-9860520.3
-9853005.6
-9523003.7
-9492629.8
-9505911
-9467590.9
-9624790.4
-9604293
-9619840.9
-9482898.3
-9574532.5
-9425444.9
-9516695.6
-9552919.6
-9401583.3
-9381202.8
-9409760.6
-9310987.1
-9598915.2
-9086420.7
-9553084.3
-9473163.8
-9235133.1
-9221551.7
-9480805.2
-9781606.1
-9660752.4
-9512736.1
-9533564.6
-9432487.9
-9443775.5
-9890616.5
-9897086.4
-9894308.7
-9670021.4
-9629675.7
-9715450.2
-9874862.3
-9545246.6
-9628599.4
-9583539
-9621378.5
-9675971.1
-9587013.3
-9592741.3
-9901744.7
-9862790.3
-9307032.8
-9582202.3
-9519644.2
-9195393.7
-9707691.7
-9531173.9
-9512260.5
-9512749.4
-9523663
-9685789.3
-9696270.1
-9689719
-9800461.6
-9539845.1
-9583200.7
-9781585.6
-9147580.5
-9221429.7
-9715930.1
-9568128.7
-9722954.6
-9595468.7
-9686461
-9620932
-9727499.6
-9553752.3
-9432563.4
-9495491.5
-9635786.8
-9685011.6
-9706883.9
-9501067.5
-9502773
-9774838.9
-9513804.5
-9750500.6
-9752443.5
-9763889.4
-9755096.2
-9753852.2
-9518168.8
-9587019.5
-9748202.1
-9381981.1
-9272098.8
-9805891.2
-9432658.6
-9827244.1
-9815756.2
-9480495.7
-9739009.3
-9717978.1
-9719060.7
-9377281.5
-9558493.1
-9654236.1
-9669656.1
-9611056
-9449798
-9445009.8
-9696514.4
-9668285.3
-9330352.7
-9728592
-8917395.9
-9793576.6
-9821935.2
-9522829.4
-9794949.2
-9524916.5
-9731413.1
-9626841.5
-9716664.2
-9594211.4
-8329208.1
-9728256.7
-9689779.9
-9467667.1
-9763115.2
-9539075.1
-9727255.8
-9349631
-9703016.9
-9729406.8
-9710605.9
-9139196.7
-9058333.1
-9082589.4
-9064012.2
-9111670.8
-9183088.5
-8973789
-9311969.6
-9681136.2
-9070324.7
-9761256.8
-9765390.4
-9716735.9
-9688183.5
-9742091.3
-9730726
-9006440.2
-8750989.5
-9718821.3
-9614143.8
-9196587.5
-9625073.7
-9196258.5
-9572725
-9471875.3
-9502583.9
-9430034
-9411273.6
-9140246.5
-9617108.5
-9484902.7
-9549729.4
-9464990.2
-9727214.9
-9704706.9
-9261583.9
-9413741
-9639613.5
-9599491.2
-9723966.4
-9615038.1
-9453614.4
-9652120.3
-9771456.6
-9759858.7
-9735843.9
-9673938.2
-9097963.9
-9540212.8
-9412069.1
-9300447.1
-9375958.7
-9445354.6
-9435462.8
-9381043.4
-9822747.2
-9824928
-9408375.1
-9790487.8
-9427960.7
-9753934
-9528256.2
-9758961.3
-9656540.6
-9699320.8
-9803165.8
-9860547.7
-9723768.2
-9765338.9
-9782577.6
-9786675.6
-9772221.6
-9801190.3
-9756177.4
-9794463
-9198605.5
-9411430.4
-9399787.2
-9448349.1
-9001648.6
-9576536.8
-9701013.2
-9175442.7
-9128542.5
-9775648.4
-9832254.7
-9428050.5
-9184484.4
-9246907.4
-9887588.3
-9933323
-9893774.9
-9684287.4
-9559423.3
-9526257.5
-9531110.1
-9495429.7
-9699205.5
-9196146.2
-9419086.4
-9760867.3
-9755447.8
-9853911.6
-9702537.3
-9437198.3
-9540608.6
-9851807.1
-9558905.6
-9710823
-9541088.5
-9514701.2
-9882438.5
-9836082.3
-9293666.8
-9635755.7
-9554307.7
-9229475
-9712891
-9594551.6
-9644026.2
-9779959.6
-9320177.3
-9279316.8
-9737335.4
-9565348.6
-9710453.5
-9556357.5
-9599230.8
-9511571.9
-9660589.3
-9538910.8
-9678035.2
-9755784.2
-9493508.6
-9523921.3
-9680473
-9225347.9
-9194922.7
-9821975.5
-9549945.4
-9820255.5
-9824833.2
-9507502.2
-9730369.9
-9728507.4
-9735037.5
-9331125.1
-9723206.7
-9654855.9
-9695181.2
-9641337.2
-9572851.7
-9672379.9
-9686728.3
-9705380
-9251520.8
-9679461.1
-9667525.6
-9770799.6
-9815585.2
-9436815.6
-9779617.7
-9476126.8
-9730533.7
-9619217.1
-8724156.8
-9606285.6
-8270312.3
-9653088.5
-9666081.5
-9640066.4
-8875037.3
-8840141.9
-9322985.1
-9199894.4
-9768917.9
-9708221.4
-9743610.2
-9725026.4
-8986136.5
-8928573.9
-9701841.6
-9590567.7
-9057570.5
-9599508.6
-9208156.2
-9643533.5
-9530218.2
-9482118.4
-9402703.3
-9422482.6
-9143047
-9598380.4
-9656566.1
-9549358.7
-9467886.9
-9704803.7
-9734735.9
-9568254.9
-9163973.8
-9420997.3
-9475754.8
-9822281.6
-9822339.9
-9297876
-9784425.1
-9287997.7
-9720765.4
-9468445.9
-9781986.1
-9746811.2
-9167478.3
-9537360.2
-9867216.2
-9833803.4
-9848043.6
-9740568.8
-9141314.3
-9214326.9
-9817940
-9869822.1
-9538463
-9412879
-9483692.1
-9472450
-9568442.3
-9271783.8
-9860667.2
-9949397.7
-9902944.6
-9663591.9
-9864211.3
-9864374.7
-9859125.1
-9598432.8
-9576066.4
-9586377.4
-9557921.7
-9676390.2
-9651944.4
-9671819.1
-9550378.5
-9622074.9
-9505467.7
-9582414.5
-9611753.9
-9488652.1
-9488617.9
-9510492.9
-9415919
-9608391.6
-9122361
-9563846.6
-9502955.9
-9264150
-9283296.3
-9532620.6
-9798511.8
-9691131
-9525659
-9554989.3
-9464807
-9482003.6
-9891463.2
-9895752.5
-9894641.4
-9686968.5
-9662148.9
-9747658.1
-9874339.8
-9572649.5
-9648862.4
-9601281.7
-9647347.5
-9696444.4
-9631966
-9628948.6
-9905884.8
-9864939.2
-9374189.2
-9595003.1
-9557499.1
-9234459.8
-9710354.7
-9563842.3
-9546963.2
-9543007.3
-9553869.6
-9698307.2
-9710353.8
-9702438
-9806504.2
-9566454.5
-9618719.1
-9790623.3
-9170902.1
-9274650.6
-9726612.8
-9589710.2
-9738427.1
-9604128.2
-9713571.6
-9641878.2
-9738278.5
-9584701.1
-9471541.6
-9537956.5
-9652549
-9698815
-9723874.9
-9534848.2
-9534263.8
-9781348.6
-9541053.7
-9759183.7
-9763434.1
-9772512.9
-9766925
-9764798.3
-9553273.9
-9624406.6
-9760734.7
-9400565.3
-9325825.5
-9814396.5
-9482133.2
-9833311.5
-9825649.6
-9505590.6
-9752322.7
-9731480.1
-9733698.3
-9421148.4
-9588808.8
-9675805.7
-9686814.8
-9634169.6
-9496201.3
-9478937.9
-9715081.3
-9689137.3
-9382787.2
-9741307.9
-8990571
-9801671.5
-9827697.3
-9554119.7
-9801824.8
-9544837
-9745733.2
-9650364.5
-9729994.9
-9618801.5
-8489995.9
-9742825.7
-9707485.1
-9514532.8
-9771916.3
-9562632.5
-9752645.8
-9389333.1
-9724842.5
-9760124.1
-9737482.3
-9242113.5
-9178368.2
-9173360.7
-9151556.8
-9230191.3
-9288719
-9095532.2
-9398245.2
-9693915.8
-9146936.6
-9778564.2
-9782411.6
-9726380.6
-9705558.2
-9749886.2
-9760740.6
-9059850.8
-8811681.7
-9727950.2
-9627991.6
-9238590.5
-9634119.9
-9243491.2
-9591844.2
-9484381.1
-9513678
-9446145.3
-9424857.7
-9250978
-9628821.6
-9501217.7
-9562827.1
-9502441.2
-9754614.4
-9728213.3
-9365751.9
-9427522.9
-9677898.2
-9644926.2
-9745641.9
-9650147.9
-9500903.6
-9671577.8
-9783385.6
-9769258
-9748331.8
-9686857.4
-9162720.3
-9560909.2
-9473750.9
-9384339.7
-9414616.8
-9482890.1
-9500612.8
-9472951
-9827662.1
-9831353.6
-9438393
-9793203.2
-9463295.7
-9759143
-9536699.2
-9768258.2
-9668944.1
-9724397.8
-9821471.8
-9869769.4
-9731011.8
-9781756.8
-9805486.9
-9810183.6
-9783812.6
-9817903.4
-9763625
-9809767.8
-9333040.1
-9483412.8
-9436535.2
-9499599.9
-9083148.8
-9607033.8
-9716311.3
-9235631.9
-9220483.7
-9785996.5
-9838823.6
-9484783.1
-9234832.6
-9355870.8
-9890347.8
-9935647.1
-9895854.4
-9711967
-9627283.3
-9602561.5
-9605210.5
-9578838.2
-9703274.6
-9237024.8
-9449812.6
-9771470.2
-9761623.7
-9860474.3
-9725465.3
-9520443.9
-9564777.4
-9853353.8
-9577504.2
-9740445.6
-9596213.8
-9556614.1
-9886368
-9840270.5
-9349119.3
-9647604.1
-9607348.2
-9289884.2
-9719755.2
-9628185.2
-9667914.1
-9786493.9
-9362047.4
-9314414.4
-9749957.9
-9601411.5
-9714220.4
-9594418.2
-9627294.5
-9537855.7
-9675149.2
-9565563.8
-9694715.7
-9767171.7
-9546163.8
-9563563.8
-9688563.5
-9278794.5
-9237746.2
-9827455.2
-9580711.5
-9825872.5
-9831729.8
-9530354.8
-9747139.1
-9742843.2
-9750662.7
-9383675.5
-9732571.8
-9679776
-9711272.3
-9665861.3
-9603377.7
-9685400.3
-9710814.3
-9722756.8
-9323967.4
-9699302.1
-9681916.8
-9783762.8
-9822761.7
-9484188.2
-9788728.1
-9499420.1
-9747908.3
-9644818.7
-8904431.6
-9631387.5
-8438465.6
-9678372
-9687753
-9668718.3
-9011057.1
-8920785
-9419712.6
-9314235
-9787119.7
-9727146.6
-9752635.3
-9758806.3
-9064447.5
-8990420.3
-9711660.8
-9603340.3
-9103482
-9607400
-9252978.5
-9668395.9
-9544998.7
-9498592
-9429439.4
-9430444.6
-9248727.2
-9632764
-9664655.5
-9576445.2
-9502864.2
-9717282.9
-9744760.4
-9597821.7
-9224670.1
-9475864.9
-9534310.6
-9830323.6
-9831509.4
-9340890.9
-9787823.3
-9346122.7
-9724787.5
-9476355
-9791905
-9777126.5
-9285972
-9580630.4
-9875795.3
-9842759.2
-9858795
-9766597
-9207902.5
-9295702.2
-9829521.4
-9874443.5
-9578742.2
-9452422.3
-9517656.9
-9510320
-9606193.9
-9365066.1
-9869851.1
-9951388.1
-9907513.8
-9688298.1
-9871868.4
-9870057.5
-9866978.8
-9670080.9
-9654942.7
-9662473
-9642896
-9726465.3
-9699999.7
-9722299.5
-9617787.1
-9670870.9
-9584470
-9647232.9
-9669964.6
-9573778.9
-9589442.3
-9605321.2
-9517585
-9621512
-9169156.2
-9579340.4
-9539330.6
-9300941.7
-9353971.7
-9588012.7
-9817057.5
-9723879.2
-9543132
-9581627.2
-9504119.5
-9526429.8
-9893851.6
-9895329.6
-9896288.4
-9707863.7
-9697444.1
-9780567.8
-9874513
-9604711.1
-9673149.4
-9623947.1
-9677124.3
-9720612.6
-9678003.5
-9668301.4
-9911100.3
-9868802.3
-9447696.9
-9611575.1
-9600282.7
-9284087.3
-9714789
-9602341.2
-9587594.6
-9579780.3
-9590458.6
-9714911.8
-9728398.5
-9719277.3
-9815342.7
-9598813.9
-9657930.2
-9802476.8
-9203152.2
-9338011
-9741044.3
-9616495.7
-9757154.6
-9615950.6
-9743110.4
-9667410.3
-9752464.7
-9621109.8
-9517857.4
-9585295
-9673935.4
-9716633.2
-9744282.2
-9574455.6
-9571862.8
-9790772.9
-9574407.9
-9770952.3
-9777346.5
-9783979.7
-9781559
-9778822.4
-9592727.1
-9664926.8
-9776302.9
-9425307
-9387748
-9825185.8
-9537147.1
-9841586.2
-9837607.7
-9536976.8
-9768817.6
-9748317.3
-9751762.7
-9473110.8
-9625512.9
-9701159.4
-9708002.3
-9662090.4
-9549499.8
-9521031
-9736799.9
-9713209.1
-9442665.6
-9757314.1
-9076633.4
-9812371.3
-9835714.4
-9591106.1
-9811319.9
-9570637.4
-9763112.2
-9677808.8
-9747050.1
-9648084.1
-8666713.1
-9760570.8
-9728565.5
-9565233.4
-9783966.5
-9590801.5
-9779714.2
-9439222.5
-9749342.9
-9791533.5
-9766017
-9348586.8
-9300473
-9272004.7
-9246717.5
-9349937.7
-9396126.1
-9222911.9
-9486114.5
-9710659.6
-9234980.1
-9798005.3
-9801499.2
-9739467.7