/*--------------------------------*- C++ -*----------------------------------*\
  =========                 |
  \\      /  F ield         | OpenFOAM: The Open Source CFD Toolbox
   \\    /   O peration     | Website:  https://openfoam.org
    \\  /    A nd           | Version:  8
     \\/     M anipulation  |
\*---------------------------------------------------------------------------*/
FoamFile
{
    version     2.0;
    format      ascii;
    class       volScalarField;
    location    "10800/buildings";
    object      Ts;
}
// * * * * * * * * * * * * * * * * * * * * * * * * * * * * * * * * * * * * * //

dimensions      [0 0 0 1 0 0 0];

internalField   nonuniform List<scalar> 
3640
(
319.68805
312.31868
304.0769
304.05767
304.21554
308.10062
318.82802
317.07281
305.00142
303.24198
311.26022
313.18542
312.50155
312.96912
311.08024
317.40812
303.82926
301.68109
302.07694
308.48895
303.78462
303.65265
303.79063
312.32388
313.3352
312.98698
314.12544
309.66465
310.20789
309.66365
312.56102
310.22181
314.03333
312.12125
311.23383
314.74277
315.84212
315.22474
316.70241
309.91909
317.59303
310.09503
311.73017
316.28288
316.13478
311.65889
305.78894
308.89493
311.43751
311.13879
312.67946
312.77195
302.64385
302.38299
302.60882
308.27913
309.58437
308.86559
303.14172
311.30522
309.52767
309.76128
309.7352
307.29504
309.51898
309.43177
302.83187
303.836
313.28006
310.30959
311.27719
315.57787
307.26563
308.88271
309.5045
309.45979
308.9577
307.47341
307.06191
307.04936
303.90508
310.52941
309.92496
305.1928
316.79304
315.60516
306.17652
310.2354
306.6918
308.78816
308.26535
309.3197
306.97538
308.86524
311.29855
310.38994
308.4795
307.59148
307.12944
311.21674
311.04646
305.61853
310.78025
306.39511
306.4954
306.09501
306.45521
305.28988
312.04462
310.49311
306.33197
312.96251
315.42933
305.49412
312.57816
304.64973
305.23798
311.79654
306.38217
307.4664
306.96263
312.28796
307.30315
308.92988
307.96904
309.0773
309.08085
309.92582
308.24499
309.03905
314.50114
307.07782
320.82788
305.32615
304.55984
310.62669
305.12651
310.85935
307.01218
309.57587
306.74921
309.85692
328.66484
307.0636
308.24349
313.43634
305.73146
311.40249
307.65319
315.23916
308.14789
307.97501
308.30973
318.58365
320.39361
318.90007
319.57102
319.25942
317.64472
320.68254
315.604
308.11657
318.22164
306.67833
306.45093
307.20954
307.96357
306.65595
308.11253
320.57288
323.74407
306.96641
308.86216
315.90135
309.2674
317.08864
311.09447
312.27793
310.70668
312.37972
314.06712
318.41
309.43979
311.3248
309.46409
312.86725
307.91304
307.68486
317.45953
313.05496
309.87788
310.70148
307.56142
310.42435
313.47371
309.10887
305.97518
306.18954
306.96964
308.36334
318.2556
310.51603
313.39755
316.33344
313.78281
312.75725
313.68825
315.47871
305.03107
304.75542
312.99864
305.79636
312.57539
306.39089
310.62694
306.66665
309.07383
308.53721
306.07531
304.23189
307.39801
306.94684
306.67928
306.62248
305.95262
305.99801
306.26145
305.5782
319.56767
314.2372
313.39577
312.90076
319.71449
311
307.78408
317.95237
318.0902
305.29597
303.69077
313.94713
317.09318
317.18938
302.91493
302.07015
302.45994
308.21118
311.524
312.62103
312.16963
313.37772
307.43344
315.86565
313.28536
306.09506
306.41953
303.66092
307.91533
314.94662
311.98917
303.81705
310.77978
307.00031
310.7431
312.24081
303.35074
304.26272
313.90197
309.37543
310.46424
315.46824
306.71505
309.81665
308.64413
304.58832
313.96679
314.32628
305.43345
310.40648
306.89754
310.27129
310.11238
311.74609
308.49274
308.97121
307.86084
305.29655
312.59833
311.68277
307.82647
316.12076
316.30975
304.72527
309.78171
304.48056
304.83932
311.33887
306.99516
307.30593
306.50999
313.4988
307.13065
308.95086
307.48524
308.76886
308.52455
308.58513
308.70447
308.01155
316.1538
308.61207
308.91157
306.20449
304.81184
312.5997
305.77696
311.82932
307.08261
309.64868
325.38635
309.77579
329.30576
309.0861
308.87699
309.66053
322.87878
321.92978
315.88198
317.03921
306.31558
307.76453
306.72251
308.53321
321.05977
321.30348
307.61743
309.50762
318.20804
309.94886
316.73421
309.51964
310.68093
311.10972
313.19984
313.64965
318.29659
310.49709
308.66729
311.0674
312.86294
307.81716
306.85464
310.14006
318.11818
313.50104
312.95591
305.19284
305.14285
315.13673
306.07269
315.42117
307.39999
311.90802
305.89897
307.80319
319.16056
312.07401
304.0263
304.06934
304.18766
307.89597
318.5616
316.80198
304.95949
303.25746
311.10683
313.07022
312.36185
312.79675
310.90801
316.99958
303.81479
301.66317
302.11408
308.40054
303.76365
303.64891
303.78297
311.89307
312.83264
312.50381
313.56573
309.38849
309.93454
309.39502
312.20629
309.99774
313.59133
311.75518
310.9108
314.24778
315.20699
314.62338
316.10644
309.85445
317.4849
310.07127
311.61039
316.14484
315.88305
311.44486
305.69838
308.69538
311.36991
311.02083
312.53592
312.5816
302.68054
302.43442
302.64435
308.1832
309.38215
308.56378
303.17376
311.12864
309.39298
309.68406
309.56731
307.24562
309.33873
309.28307
302.80379
303.82394
313.11433
310.21909
311.08602
315.4773
307.26543
308.86696
309.46401
309.43517
308.95306
307.43413
307.03048
307.03257
303.98009
310.41291
309.75093
305.18654
316.73288
315.4206
306.1892
310.12339
306.63479
308.79375
308.09282
309.20163
306.91634
308.83025
311.21614
310.2831
308.41969
307.54051
307.06459
311.07838
310.92783
305.60577
310.68321
306.35415
306.42963
306.0521
306.38266
305.30141
311.80211
310.25951
306.27803
312.91318
315.19524
305.42423
312.36261
304.61863
305.1604
311.68204
306.3343
307.37163
306.898
312.18646
307.34876
308.78389
307.89302
308.98367
309.09319
309.92897
308.09851
308.86464
314.27163
307.00074
320.53655
305.29446
304.54617
310.51387
305.113
310.77841
306.92445
309.41124
306.71908
309.72058
328.08279
306.97705
308.11128
313.10222
305.72254
311.23393
307.46759
315.04264
307.98198
307.72677
308.08221
318.08987
319.79013
318.49692
319.15276
318.67554
317.15243
320.14408
315.17746
308.04511
317.94158
306.54627
306.33296
307.15988
307.86295
306.61468
307.85052
320.28945
323.46522
306.92899
308.82202
315.76485
309.21298
316.86051
310.92706
312.20371
310.70662
312.32988
313.9474
317.89486
309.37386
311.28269
309.47984
312.62508
307.68202
307.53882
316.87564
312.97672
309.59058
310.37888
307.40813
310.15198
313.15362
308.96135
305.91041
306.14152
306.88631
308.2798
317.9832
310.43247
313.10238
315.86932
313.60576
312.56825
313.32756
314.9359
304.98626
304.71943
312.86905
305.76842
312.42876
306.36277
310.60848
306.58538
308.96548
308.32478
305.90982
304.15522
307.33612
306.78647
306.48186
306.41912
305.89429
305.85028
306.22832
305.49112
318.77037
313.83484
313.22459
312.63853
319.37356
310.77912
307.68037
317.633
317.67943
305.28158
303.71712
313.5906
316.85957
316.63001
302.92565
302.04743
302.48933
308.04374
311.13003
312.15011
311.7423
312.86574
307.42094
315.73788
313.12133
306.04573
306.38209
303.66426
307.76593
314.37595
311.78533
303.83096
310.6648
306.88361
310.49204
311.96475
303.32667
304.25529
313.74473
309.28028
310.22973
315.25778
306.71446
309.64079
308.52714
304.62753
313.82746
314.23456
305.45557
310.21872
306.90241
310.10399
309.92883
311.58111
308.40642
308.96133
307.78493
305.30573
312.26029
311.43849
307.79412
315.89296
316.14808
304.70177
309.69098
304.47661
304.79382
311.23161
306.89738
307.1999
306.44914
313.33225
307.07299
308.78527
307.41108
308.64475
308.485
308.48217
308.50524
307.87466
315.81865
308.46044
308.78785
306.11933
304.78252
312.39022
305.72974
311.72974
306.97321
309.4787
324.56685
309.62533
328.70618
308.91254
308.71129
309.44039
322.24177
321.61611
315.33399
316.54534
306.19881
307.63833
306.66591
308.21767
320.65854
321.01417
307.55717
309.46069
318.04874
309.89158
316.52636
309.32826
310.6258
311.08281
313.07441
313.57709
317.80482
310.25201
308.61075
310.8906
312.63764
307.72262
306.79778
310.00427
317.79877
313.21797
312.61772
305.11693
305.06599
314.93547
306.03085
315.15141
307.36472
311.8846
305.83275
307.53003
318.54951
311.78732
303.96618
304.08167
304.15337
307.65816
318.25141
316.48661
304.90925
303.27489
310.92797
312.93353
312.1968
312.59513
310.70513
316.52297
303.7912
301.64209
302.15645
308.29669
303.74006
303.64345
303.77281
311.38688
312.24352
311.93714
312.91036
309.06237
309.61241
309.07776
311.79008
309.73337
313.07472
311.32526
310.53124
313.66894
314.46373
313.91959
315.41016
309.7823
317.35806
310.04275
311.46911
315.98468
315.58799
311.19243
305.59144
308.46352
311.28981
310.88222
312.36835
312.35788
302.72235
302.49337
302.68278
308.07253
309.14378
308.21166
303.21108
310.92167
309.23484
309.59283
309.37013
307.18677
309.12547
309.10793
302.76886
303.80929
312.91877
310.1138
310.86253
315.3589
307.26467
308.84767
309.41566
309.4055
308.94683
307.38763
306.99299
307.01212
304.06556
310.27671
309.54786
305.17829
316.66186
315.20544
306.20315
309.99264
306.56758
308.7994
307.89118
309.06369
306.8469
308.78829
311.11863
310.15672
308.34942
307.48031
306.98767
310.91532
310.78796
305.58994
310.56855
306.30554
306.35238
306.00138
306.29761
305.31402
311.52075
309.98711
306.21425
312.85467
314.92114
305.34205
312.10993
304.58163
305.06932
311.5475
306.27736
307.26078
306.82184
312.06662
307.40096
308.61412
307.80414
308.87355
309.10628
309.93147
307.92796
308.6623
314.00216
306.91016
320.19686
305.25663
304.52941
310.38064
305.09662
310.68292
306.82147
309.22028
306.68132
309.562
327.40856
306.87568
307.95783
312.71671
305.71003
311.03951
307.25046
314.79908
307.7887
307.43823
307.81935
317.51419
319.08867
318.02685
318.66621
317.99745
316.5788
319.51935
314.67879
307.95988
317.61286
306.39244
306.19492
307.10084
307.74429
306.56589
307.54641
319.96069
323.14196
306.88475
308.77452
315.6057
309.14909
316.59359
310.73354
312.11728
310.70503
312.27128
313.80908
317.29429
309.29579
311.23214
309.49669
312.34503
307.41525
307.36893
316.19552
312.8857
309.25846
310.00627
307.2285
309.83735
312.78441
308.79024
305.83427
306.08501
306.78898
308.18159
317.66486
310.33376
312.75603
315.3283
313.39818
312.34602
312.90359
314.30134
304.93349
304.6765
312.71643
305.73491
312.25686
306.32944
310.58636
306.49039
308.83972
308.0783
305.7159
304.06405
307.26365
306.60067
306.25047
306.18059
305.82502
305.67743
306.18862
305.38784
317.84575
313.36332
313.0236
312.33045
318.97763
310.52156
307.56008
317.26117
317.19965
305.26404
303.74553
313.17698
316.58694
315.9798
302.93614
302.02045
302.51969
307.8475
310.66684
311.59838
311.24053
312.26568
307.41338
315.58822
312.92957
305.98797
306.3378
303.66559
307.59142
313.71457
311.54661
303.84549
310.52961
306.74535
310.19714
311.64335
303.29773
304.24373
313.5597
309.16957
309.95333
315.01099
306.71345
309.43531
308.39029
304.67235
313.66315
314.12737
305.48056
309.99954
306.90738
309.90795
309.71588
311.38969
308.30571
308.94888
307.69586
305.31579
311.86952
311.15511
307.75559
315.62782
315.95913
304.67376
309.58282
304.47123
304.73991
311.10609
306.78285
307.07613
306.37685
313.13697
307.00551
308.59261
307.32421
308.4994
308.43821
308.36255
308.27443
307.7153
315.42715
308.28374
308.64402
306.01915
304.74768
312.1442
305.67386
311.61254
306.84559
309.28176
323.61974
309.44993
328.01249
308.71022
308.51945
309.18546
321.50422
321.25032
314.70527
315.96787
306.06146
307.49025
306.59948
307.85388
320.19381
320.67795
307.48697
309.40538
317.86254
309.82451
316.28305
309.1062
310.56102
311.05002
312.92855
313.49274
317.23154
309.9678
308.54465
310.68569
312.37628
307.61238
306.73084
309.84429
317.42618
312.88534
312.22049
305.02802
304.9755
314.70097
305.98188
314.83589
307.32302
311.85668
305.75486
307.21388
317.8473
311.45899
303.89368
304.09345
304.10931
307.38619
317.89375
316.1209
304.85039
303.29397
310.72049
312.77532
312.0057
312.36029
310.46896
315.97209
303.76534
301.61676
302.20456
308.17603
303.71027
303.63582
303.75868
310.79668
311.55911
311.27852
312.15069
308.68009
309.23554
308.70553
311.30505
309.42419
312.47471
310.82456
310.0887
312.99907
313.60344
313.10442
314.60891
309.69455
317.21093
310.00843
311.30376
315.79836
315.24583
310.8971
305.46634
308.19673
311.19599
310.72007
312.17165
312.09747
302.76857
302.56
302.72725
307.94232
308.86678
307.80635
303.25368
310.68147
309.0507
309.48632
309.1404
307.11732
308.87703
308.90255
302.73007
303.7915
312.68941
309.99294
310.60382
315.22125
307.2628
308.82391
309.35807
309.36975
308.93834
307.33288
306.94812
306.98729
304.1615
310.11872
309.31223
305.16709
316.57879
314.95519
306.21817
309.84131
306.48905
308.80463
307.6574
308.90385
306.76564
308.73805
311.00396
310.0081
308.26741
307.40953
306.89685
310.72457
310.624
305.57005
310.434
306.24814
306.26226
305.94182
306.19858
305.32755
311.19842
309.67235
306.13923
312.78581
314.60388
305.24605
311.81748
304.5375
304.96315
311.39058
306.21041
307.13213
306.73264
311.92612
307.45975
308.41844
307.70096
308.74521
309.11942
309.93253
307.73116
308.42998
313.68874
306.80395
319.80439
305.21143
304.50901
310.22434
305.07627
310.57104
306.70198
309.00159
306.63391
309.37831
326.63586
306.75714
307.78077
312.27674
305.69197
310.81658
306.99853
314.49724
307.56562
307.10453
307.5184
316.84918
318.28166
317.48388
318.10589
317.2182
315.91689
318.80228
314.10123
307.85863
317.22952
306.21466
306.03469
307.03128
307.60617
306.50838
307.19696
319.58315
322.77091
306.83286
308.71868
315.42111
309.0745
316.28439
310.51244
312.01745
310.7009
312.20265
313.6507
316.60073
309.20362
311.17134
309.51367
312.02482
307.11051
307.17321
315.41159
312.78064
308.87844
309.58094
307.01958
309.47731
312.36323
308.59385
305.74539
306.01878
306.67617
308.06706
317.29565
310.21795
312.3535
314.70398
313.15708
312.087
312.40952
313.56687
304.87178
304.62554
312.53943
305.69605
312.05641
306.29011
310.55998
306.38034
308.69511
307.79533
305.49059
303.95606
307.17932
306.38782
305.98149
305.90309
305.74296
305.47708
306.14129
305.26595
316.7857
312.81576
312.78942
311.97153
318.52118
310.22396
307.42046
316.83152
316.64853
305.24254
303.77894
312.70292
316.27175
315.22984
302.94689
301.98825
302.55701
307.62082
310.12743
310.95788
310.65571
311.56906
307.39677
315.41431
312.70798
305.92018
306.28573
303.66353
307.38785
312.95661
311.27329
303.86135
310.37253
306.58268
309.85378
311.2715
303.26317
304.23143
313.34487
309.04239
309.6299
314.72476
306.71074
309.19729
308.23111
304.72294
313.47219
314.00174
305.50848
309.74603
306.91204
309.68002
309.47114
311.16965
308.18906
308.93301
307.59205
305.32623
311.42346
310.82947
307.71003
315.32051
315.73976
304.63998
309.45549
304.46372
304.6764
310.95948
306.64964
306.93281
306.29204
312.90972
306.92715
308.37052
307.22321
308.33054
308.38308
308.2249
308.00969
307.53129
314.97372
308.07955
308.478
305.9022
304.70632
311.85804
305.608
311.47554
306.69799
309.05598
322.53644
309.24733
327.21755
308.47674
308.29953
308.89353
320.65936
320.82802
313.99265
315.29864
305.90128
307.31774
306.522
307.43945
319.66098
320.29133
307.40505
309.34066
317.64695
309.74664
316.00099
308.85107
310.48546
311.00997
312.76048
313.39567
316.56985
309.64175
308.46796
310.45054
312.07594
307.48489
306.6525
309.65719
316.99573
312.49777
311.75807
304.92468
304.86968
314.42965
305.92492
314.47119
307.27398
311.82323
305.66382
306.85192
317.05249
311.08389
303.80838
304.10489
304.05533
307.07796
317.48642
315.70393
304.78111
303.31404
310.48423
312.59231
311.78564
312.09138
310.19742
315.34666
303.72737
301.58662
302.25738
308.03665
303.6738
303.62464
303.73864
310.11834
310.77528
310.52427
311.28293
308.23653
308.80082
308.2733
310.7477
309.06477
311.78895
310.2494
309.57963
312.23496
312.62233
312.17424
313.69858
309.59549
317.04157
309.96765
311.11327
315.58357
314.85327
310.55525
305.3208
307.8936
311.08759
310.53305
311.94557
311.79771
302.81842
302.63476
302.77595
307.79276
308.54847
307.34537
303.29985
310.40587
308.838
309.36256
308.87595
307.03583
308.58794
308.666
302.68339
303.76966
312.42506
309.85509
310.30712
315.06247
307.25904
308.79443
309.28975
309.32665
308.92642
307.26875
306.89468
306.95692
304.26646
309.93748
309.04252
305.15172
316.4822
314.66797
306.23331
309.66826
306.39801
308.80849
307.38963
308.72076
306.67143
308.67803
310.87028
309.83504
308.17249
307.32686
306.79026
310.50392
310.43383
305.54498
310.27765
306.18073
306.15811
305.87234
306.08447
305.34138
310.83444
309.31343
306.0516
312.70592
314.2407
305.13505
311.47973
304.48536
304.84069
311.20962
306.13231
306.98448
306.62903
311.7629
307.52425
308.19571
307.58237
308.59693
309.1313
309.93092
307.50696
308.16683
313.3285
306.68104
319.357
305.15759
304.4838
310.04282
305.05114
310.44123
306.56456
308.75386
306.57463
309.1688
325.76283
306.62027
307.57948
311.78206
305.66651
310.56526
306.7097
314.12527
307.31133
306.72486
307.17924
316.09193
317.36683
316.86519
317.46956
316.33601
315.1639
317.9916
313.44137
307.73902
316.78757
306.01178
305.8508
306.94966
307.44615
306.44114
306.80106
319.15581
322.35113
306.77225
308.6534
315.20951
308.98837
315.9306
310.26313
311.90338
310.69277
312.12284
313.47182
315.81089
309.09557
311.09855
309.52938
311.66393
306.76758
306.9507
314.52188
312.66071
308.45009
309.10237
306.77957
309.07138
311.89003
308.37144
305.64253
305.94186
306.54688
307.93479
316.87337
310.08333
311.89136
313.99404
312.88034
311.78874
311.84129
312.72912
304.80016
304.56527
312.33601
305.65054
311.82582
306.24397
310.52837
306.25458
308.53095
307.47493
305.23214
303.82913
307.08224
306.14735
305.67262
305.58414
305.64645
305.24739
306.08505
305.123
315.59048
312.18881
312.51989
311.55867
318.00301
309.8849
307.26111
316.3439
316.02228
305.21604
303.81344
312.16826
315.91234
314.37556
302.95521
301.95026
302.59512
307.36027
309.50645
310.22504
309.98426
310.77197
307.38109
315.21453
312.45396
305.84156
306.22479
303.65572
307.15374
312.10156
310.9636
303.87824
310.19184
306.39289
309.45953
310.84829
303.22156
304.21484
313.0971
308.89738
309.25517
314.39534
306.70628
308.925
308.04809
304.77852
313.25234
313.85639
305.53857
309.45648
306.91572
309.41796
309.19357
310.92009
308.0554
308.9125
307.47215
305.33627
310.92172
310.46057
307.65639
314.97004
315.48837
304.59961
309.30939
304.45316
304.60208
310.78971
306.49643
306.76881
306.19302
312.64849
306.83708
308.11766
307.10689
308.13646
308.31845
308.06851
307.71025
307.32141
314.45562
307.84662
308.28898
305.76704
304.65735
311.5289
305.53097
311.31723
306.52923
308.80068
321.31639
309.01595
326.32014
308.21055
308.05088
308.56389
319.70603
320.34662
313.19807
314.53334
305.71612
307.11884
306.43244
306.97465
319.05873
319.85248
307.31074
309.2654
317.40036
309.65701
315.67783
308.56184
310.39802
310.96104
312.56915
313.28508
315.81687
309.27306
308.37996
310.18437
311.73556
307.3392
306.56158
309.44092
316.50536
312.0519
311.22695
304.80586
304.74713
314.11995
305.85932
314.05421
307.21676
311.78379
305.55836
306.44364
316.17089
310.66909
303.70819
304.11303
303.98786
306.73809
317.03211
315.23637
304.70069
303.33369
310.2164
312.38474
311.53858
311.7889
309.8914
314.65037
303.6801
301.55058
302.31355
307.87816
303.62911
303.60868
303.71047
309.35471
309.89691
309.67891
310.31389
307.73134
308.30899
307.78035
310.11984
308.65705
311.02095
309.60229
309.00624
311.38205
311.52893
311.13663
312.68916
309.48184
316.84993
309.91863
310.89641
315.34171
314.41239
310.16673
305.15366
307.55587
310.96411
310.32115
311.68899
311.45933
302.86926
302.71502
302.82554
307.62333
308.18864
306.83295
303.3491
310.09624
308.59754
309.22164
308.57735
306.94091
308.26025
308.39654
302.62999
303.74272
312.12245
309.70141
309.9745
314.88207
307.25232
308.7575
309.20921
309.27465
308.90935
307.19422
306.83128
306.91968
304.37708
309.73313
308.73868
305.13042
316.37132
314.34448
306.24688
309.47369
306.29374
308.80949
307.0883
308.5145
306.56355
308.60664
310.71651
309.63647
308.06394
307.23126
306.66649
310.25302
310.21698
305.51312
310.09872
306.1023
306.03939
305.79214
305.95488
305.3536
310.43166
308.91211
305.95041
312.61347
313.83334
305.0086
311.1018
304.42393
304.70158
311.00441
306.04174
306.8177
306.51018
311.57611
307.59211
307.94676
307.44797
308.42803
309.13958
309.92462
307.25622
307.87459
312.9221
306.5403
318.85692
305.09388
304.45255
309.83544
305.01964
310.29277
306.40887
308.47852
306.50093
308.9331
324.79748
306.46467
307.35466
311.23763
305.63119
310.28767
306.38447
313.67154
307.02684
306.30072
306.8047
315.24733
316.3525
316.17444
316.76182
315.35908
314.32532
317.09442
312.70284
307.59943
316.28654
305.78431
305.64325
306.85502
307.26382
306.36318
306.36166
318.68152
321.88573
306.70228
308.57778
314.97106
308.89023
315.53347
309.9879
311.77506
310.67851
312.03099
313.27361
314.93038
308.97035
311.01185
309.54133
311.26566
306.38988
306.70247
313.53466
312.52588
307.97746
308.57549
306.50861
308.62324
311.36953
308.12424
305.52512
305.85346
306.40099
307.78451
316.39941
309.92905
311.37089
313.204
312.56855
311.45152
311.20085
311.79445
304.71817
304.49456
312.10652
305.59813
311.56489
306.19025
310.49072
306.11305
308.34804
307.11945
304.94101
303.68179
306.97207
305.88131
305.32441
305.2242
305.53413
304.98889
306.0187
304.95764
314.27503
311.48594
312.21537
311.09288
317.42642
309.50947
307.08305
315.80115
315.32544
305.18317
303.84828
311.5759
315.51005
313.4255
302.95957
301.90545
302.63587
307.06709
308.80745
309.40448
309.22917
309.87978
307.35872
314.98869
312.1692
305.75118
306.15414
303.63853
306.88903
311.15956
310.61995
303.89381
309.98753
306.1743
309.01461
310.37614
303.17184
304.19349
312.8172
308.7357
308.82831
314.02474
306.69835
308.61926
307.84101
304.83703
313.00332
313.69095
305.56892
309.13183
306.91717
309.12167
308.88476
310.64239
307.90469
308.8856
307.33558
305.34428
310.36969
310.0512
307.59363
314.57734
315.20518
304.55126
309.13923
304.43801
304.51606
310.59761
306.323
306.58427
306.07876
312.3534
306.73503
307.83502
306.97476
307.91697
308.24313
307.89397
307.37829
307.08639
313.87539
307.58581
308.07776
305.61316
304.59974
311.15737
305.44182
311.13706
306.33947
308.51754
319.97346
308.75653
325.32853
307.9127
307.7752
308.19916
318.65373
319.80835
312.33295
313.67566
305.50547
306.89322
306.33024
306.4651
318.39249
319.36431
307.20366
309.17898
317.1234
309.55538
315.31472
308.24033
310.29806
310.90131
312.35511
313.16136
314.97778
308.86496
308.28044
309.88891
311.35738
307.1755
306.45737
309.195
315.95808
311.54886
310.62919
304.67141
304.60731
313.77288
305.78473
313.58747
307.15099
311.73701
305.43792
305.99302
315.22514
310.2207
303.59245
304.11485
303.90379
306.37232
316.54047
314.72776
304.60841
303.35014
309.92291
312.15511
311.2662
311.45759
309.55492
313.89737
303.61628
301.50825
302.36901
307.70226
303.57365
303.58552
303.67083
308.52321
308.94587
308.76349
309.26915
307.17268
307.76939
307.23381
309.43383
308.20584
310.18888
308.89783
308.38085
310.46309
310.35269
310.0193
311.6076
309.35693
316.63784
309.86065
310.65639
315.07559
313.93061
309.73728
304.9658
307.1903
310.82563
310.08668
311.40627
311.08793
302.91626
302.798
302.8722
307.43584
307.79542
306.28231
303.39803
309.7579
308.33281
309.06427
308.24971
306.83206
307.89694
308.09867
302.56857
303.70938
311.78651
309.53367
309.61078
314.68178
307.24087
308.71077
309.11515
309.2119
308.88432
307.10859
306.7564
306.87362
304.48689
309.5084
308.40589
305.10072
316.24606
313.98956
306.25581
309.26048
306.17652
308.80508
306.75846
308.28798
306.44221
308.52232
310.54312
309.41379
307.94187
307.12225
306.52514
309.97516
309.97534
305.47279
309.89868
306.01225
305.90678
305.70097
305.81085
305.3616
309.99957
308.47665
305.83566
312.50909
313.38946
304.86776
310.68823
304.35251
304.54714
310.77764
305.93857
306.63382
306.37638
311.3671
307.65852
307.67596
307.29874
308.23978
309.14032
309.9105
306.98347
307.55949
312.47679
306.38282
318.31444
305.01909
304.41353
309.60406
304.97994
310.12679
306.23644
308.18107
306.41131
308.67505
323.76428
306.29144
307.11017
310.6573
305.58347
309.98995
306.02843
313.12935
306.71745
305.84118
306.40394
314.33574
315.26568
315.42709
315.99955
314.31335
313.42185
316.13404
311.90255
307.43978
315.73375
305.53602
305.41493
306.74678
307.06073
306.27396
305.88901
318.17135
321.38557
306.62199
308.49129
314.70928
308.78032
315.10056
309.69274
311.63379
310.65519
311.92678
313.06002
313.98051
308.8279
310.90974
309.54559
310.83955
305.98685
306.43319
312.47682
312.37769
307.47249
308.014
306.21116
308.14372
310.81511
307.85706
305.39372
305.7535
306.24015
307.61796
315.88307
309.75605
310.80263
312.35371
312.22718
311.08109
310.50182
310.78696
304.62586
304.41264
311.85404
305.53837
311.27777
306.12835
310.44584
305.95771
308.14965
306.73695
304.62236
303.51438
306.84956
305.5957
304.94303
304.82961
305.40557
304.70594
305.94117
304.77025
312.87976
310.72353
311.88098
310.58316
316.80403
309.1025
306.88764
315.21434
314.57533
305.1421
303.88022
310.94223
315.07283
312.40234
302.95605
301.85313
302.67451
306.74664
308.0452
308.51596
308.40825
308.91527
307.33256
314.73977
311.85826
305.64878
306.07339
303.60733
306.59771
310.15851
310.25029
303.90588
309.76282
305.92825
308.52748
309.86479
303.11276
304.16554
312.50801
308.55942
308.3545
313.61824
306.68507
308.2855
307.61267
304.89433
312.72839
313.50604
305.59628
308.77803
306.91442
308.79537
308.55094
310.342
307.73855
308.84977
307.18309
305.34747
309.78207
309.61063
307.52064
314.15022
314.89494
304.49388
308.94996
304.4161
304.41813
310.38435
306.13135
306.38183
305.94916
312.02907
306.62173
307.52773
306.82768
307.67482
308.15609
307.70423
307.02112
306.83035
313.2454
307.30195
307.84814
305.44197
304.53249
310.74996
305.34032
310.93703
306.13137
308.21245
318.5443
308.47327
324.26761
307.58881
307.47822
307.80776
317.53056
319.22417
311.4235
312.74477
305.27165
306.64374
306.21578
305.92501
317.67831
318.83779
307.08448
309.08112
316.81988
309.44242
314.91823
307.89343
310.18567
310.82878
312.12177
313.02594
314.07303
308.4271
308.17004
309.57041
310.94966
306.99604
306.34009
308.9227
315.3664
310.99854
309.97777
304.52284
304.45137
313.39529
305.70149
313.08013
307.07651
311.68225
305.30322
305.51162
314.26397
309.76017
303.46276
304.10545
303.80244
305.99833
316.03332
314.20058
304.5048
303.35879
309.61361
311.91074
310.98052
311.11179
309.20298
313.12739
303.53581
301.45855
302.41711
307.51351
303.50527
303.5522
303.61607
307.66599
307.9724
307.82657
308.2054
306.58491
307.20743
306.65709
308.72332
307.72927
309.33568
308.17159
307.73382
309.52633
309.15844
308.88346
310.51373
309.22164
316.41123
309.79194
310.40095
314.79491
313.42937
309.28452
304.76204
306.81267
310.6769
309.83884
311.10685
310.6995
302.95223
302.87471
302.91121
307.23585
307.38596
305.72159
303.44079
309.40575
308.05434
308.89479
307.90702
306.70987
307.51278
307.78301
302.50027
303.66768
311.42741
309.35749
309.23061
314.46685
307.22182
308.65098
309.00687
309.13628
308.84699
307.01171
306.66903
306.81628
304.5846
309.27078
308.05715
305.05918
316.10809
313.61714
306.2546
309.0359
306.04799
308.79118
306.41345
308.04903
306.30968
308.42393
310.35363
309.17329
307.80807
307.00073
306.36829
309.68035
309.71681
305.42188
309.6833
305.91103
305.76324
305.59961
305.65603
305.36029
309.55857
308.02661
305.70893
312.39382
312.92888
304.71635
310.25662
304.27066
304.38182
310.53707
305.82361
306.43865
306.23015
311.14151
307.71452
307.39381
307.13817
308.03713
309.12716
309.88365
306.69961
307.23522
312.01151
306.21236
317.75392
304.93249
304.36451
309.356
304.92944
309.94762
306.0521
307.87349
306.30582
308.40364
322.7157
306.10499
306.8553
310.06965
305.52147
309.68569
305.65637
312.50592
306.39577
305.36666
305.99547
313.40366
314.16482
314.65915
315.22044
313.25401
312.50006
315.1595
311.08072
307.26376
315.14979
305.27643
305.17384
306.62602
306.84245
306.17405
305.40569
317.64897
320.87386
306.53123
308.39398
314.43297
308.66064
314.65047
309.39076
311.4833
310.61888
311.81112
312.83959
313.00985
308.67076
310.7919
309.53635
310.40556
305.57762
306.15361
311.40537
312.22007
306.95994
307.44571
305.89922
307.65599
310.25378
307.58059
305.25115
305.64318
306.06908
307.44036
315.34661
309.56865
310.21281
311.48704
311.87031
310.69297
309.77837
309.76059
304.52458
304.31965
311.58822
305.47087
310.97521
306.05816
310.39267
305.79354
307.94331
306.34488
304.28936
303.33099
306.71755
305.30336
304.54501
304.41751
305.26254
304.40986
305.85197
304.56543
311.48473
309.94036
311.53045
310.05276
316.1644
308.68341
306.68265
314.6127
313.80731
305.09044
303.90252
310.29816
314.62039
311.35739
302.93954
301.79274
302.70603
306.41122
307.25782
307.60606
307.56335
307.92988
307.29588
314.47591
311.53394
305.53582
305.98296
303.55746
306.2909
309.15447
309.87102
303.90958
309.52589
305.66183
308.01992
309.33961
303.04329
304.12869
312.18076
308.37455
307.85232
313.19261
306.66308
307.93737
307.37086
304.94263
312.43698
313.30694
305.61421
308.40956
306.90427
308.45119
308.20633
310.03137
307.56169
308.80131
307.01819
305.34104
309.18835
309.15916
307.43692
313.70695
314.56947
304.42623
308.74469
304.38419
304.30949
310.15759
305.92743
306.16846
305.80648
311.68762
306.49967
307.20815
306.66906
307.41818
308.05661
307.50611
306.65467
306.56355
312.59528
307.00666
307.60946
305.25843
304.4551
310.32378
305.22768
310.72337
305.91194
307.89816
317.10631
308.17744
323.19178
307.25229
307.17246
307.4077
316.39581
318.61977
310.51866
311.7869
305.02234
306.37935
306.09126
305.38241
316.95163
318.29703
306.95607
308.97276
316.50069
309.3206
314.50518
307.53655
310.0625
310.74166
311.87727
312.88299
313.14859
307.98036
308.05131
309.24263
310.53088
306.80676
306.21183
308.63394
314.75928
310.42641
309.30471
304.36467
304.28367
313.00257
305.61118
312.55554
306.99455
311.61856
305.15741
305.02348
313.37582
309.32655
303.325
304.07722
303.68485
305.64655
315.55361
313.69808
304.39269
303.35186
309.31159
311.66713
310.7015
310.77859
308.86299
312.40872
303.43607
301.40097
302.44529
307.32276
303.42366
303.50472
303.5436
306.86626
307.07249
306.95992
307.2282
306.02103
306.67353
306.10175
308.05414
307.26824
308.54241
307.49206
307.12521
308.6628
308.06563
307.84232
309.51414
309.08419
316.18264
309.71174
310.14778
314.51922
312.95044
308.84606
304.55484
306.45339