/*--------------------------------*- C++ -*----------------------------------*\
  =========                 |
  \\      /  F ield         | OpenFOAM: The Open Source CFD Toolbox
   \\    /   O peration     | Website:  https://openfoam.org
    \\  /    A nd           | Version:  8
     \\/     M anipulation  |
\*---------------------------------------------------------------------------*/
FoamFile
{
    version     2.0;
    format      ascii;
    class       volScalarField;
    location    "10800/buildings";
    object      ws;
}
// * * * * * * * * * * * * * * * * * * * * * * * * * * * * * * * * * * * * * //

dimensions      [1 -3 0 0 0 0 0];

internalField   nonuniform List<scalar> 
3640
(
8.3668024
8.1003686
7.926581
7.9401272
7.9360318
8.0000915
8.2952211
8.279383
7.9497075
7.9230019
8.0922328
8.142864
8.1074329
8.1179461
8.0783669
8.2800408
7.9293777
7.8899073
7.9106261
8.0248118
7.9269278
7.9249956
7.928296
8.1305046
8.1532113
8.1444598
8.1726975
8.061883
8.0656444
8.0638105
8.1336953
8.0750598
8.1723328
8.1202096
8.0983305
8.192098
8.2284807
8.2082986
8.2519752
8.0362301
8.2771355
8.056245
8.1019844
8.2049741
8.2347271
8.1156049
7.9658107
8.0269892
8.0743707
8.0711113
8.1206753
8.1208326
7.9100149
7.9089632
7.9086123
8.0110847
8.0413459
8.0097197
7.918875
8.0711655
8.0307312
8.0480027
8.0380931
8.0114576
8.0688974
8.0579681
7.9104162
7.9232194
8.201734
8.0464439
8.088701
8.230374
7.9881152
8.0814986
8.0906233
8.0874315
8.0829291
8.0013767
7.9974825
8.0001175
7.9499491
8.0720387
8.0609417
7.9595976
8.2400631
8.2281565
7.9888828
8.0571595
7.9887846
8.0392145
8.0125571
8.0341115
7.9833126
8.0701294
8.127367
8.1032597
8.0255796
8.0021519
7.9949124
8.0936991
8.0910274
7.9608967
8.083634
7.9724376
7.973512
7.9675039
7.973285
7.9745768
8.091467
8.0622037
7.975823
8.134807
8.2088922
7.950153
8.1356205
7.9398055
7.9473521
8.0960005
7.9804182
7.989091
7.9892243
8.1542128
8.0703146
8.0213047
8.0118277
8.0389101
8.1281794
8.1196446
8.0022681
8.0162656
8.180584
7.9841952
8.38382
7.9542912
7.9420495
8.0813602
7.9532774
8.072881
7.9847051
8.0357657
7.98774
8.048808
8.7669802
7.9860226
8.0046518
8.1241252
7.9661788
8.0724105
7.9953092
8.1585867
8.002531
8.0013742
8.0054077
8.3156679
8.3756397
8.3259762
8.3336699
8.3493635
8.2992824
8.412541
8.223531
8.0028991
8.316116
7.9752329
7.973061
7.9871298
8.0035477
7.975403
8.0004356
8.3292488
8.4552381
7.9869928
8.0324659
8.2316862
8.0253471
8.2361878
8.0556361
8.0921625
8.0772042
8.1116828
8.1199712
8.3238498
8.0291292
8.0864109
8.0566192
8.11627
8.0002123
8.0036103
8.2707891
8.1190467
8.0454863
8.0688889
7.9930239
8.05142
8.1302294
8.0221867
7.9667213
7.9698655
7.9819921
8.0064348
8.2952365
8.067693
8.1553057
8.2290266
8.1496441
8.11979
8.1498382
8.2059197
7.9415246
7.9410009
8.1301327
7.9542593
8.1252656
7.9702405
8.0663751
7.9703243
8.0143789
8.0074957
7.9600402
7.9289682
7.9841868
7.9739523
7.9718153
7.9708529
7.9652889
7.9589178
7.9695132
7.959152
8.344994
8.1683141
8.1378873
8.1301119
8.3536724
8.0609456
7.9983036
8.2585564
8.3082744
7.9638283
7.9388895
8.1489761
8.2449303
8.2789727
7.9125055
7.8962923
7.911771
8.0143955
8.1073778
8.1315867
8.1262654
8.152523
7.9924322
8.2311848
8.1262966
7.9698588
7.969397
7.9275839
8.0020562
8.1799749
8.0720916
7.9271023
8.058862
8.0054604
8.0980885
8.0968678
7.9163786
7.9353165
8.1980057
8.0227432
8.0880341
8.2299161
7.9881352
8.0553455
8.0267244
7.9616555
8.1762972
8.1896883
7.9817942
8.0691199
7.9885272
8.0733537
8.0496813
8.0848655
8.0137883
8.0735509
8.0071282
7.9734806
8.1197182
8.091189
8.0018356
8.2281452
8.232903
7.9414861
8.0709653
7.942455
7.9414149
8.0828528
7.986346
7.985605
7.9832713
8.1816613
7.984764
8.0235145
8.000284
8.0276926
8.0626375
8.008198
8.0117981
7.9974702
8.2335312
8.0098505
8.0108447
7.9670838
7.9455657
8.13076
7.9607586
8.0955968
7.9875456
8.0402412
8.6058066
8.0436408
8.8068489
8.0250842
8.0180522
8.0348429
8.4759823
8.4259581
8.2388242
8.3007874
7.9719971
7.996207
7.9755993
8.0082558
8.3628312
8.3714898
7.9937282
8.0418788
8.2975991
8.0353445
8.2285781
8.0295777
8.0680529
8.0883029
8.1310111
8.1107724
8.3170656
8.057247
8.0125528
8.0718703
8.110067
7.9944722
7.9802213
8.0621697
8.2634266
8.1447037
8.1273045
7.943683
7.9441228
8.188156
7.95664
8.2044147
7.982443
8.09115
7.9608679
7.994878
8.3672916
8.1006101
7.9267318
7.940102
7.9361391
8.0000758
8.2961334
8.2795181
7.9497494
7.9229002
8.0922294
8.1431803
8.1079541
8.1186135
8.0787961
8.2805499
7.9295338
7.8899332
7.9104701
8.0247862
7.926967
7.925043
7.9284012
8.1308011
8.153797
8.144998
8.1735976
8.0619144
8.0659357
8.0638052
8.1340629
8.0751913
8.1729571
8.1205877
8.0985786
8.1929388
8.2297801
8.2094246
8.253257
8.0365118
8.2773337
8.0561943
8.1023277
8.2059405
8.2353781
8.1158639
7.9658154
8.0268777
8.0748065
8.0717115
8.1211735
8.1215015
7.9100903
7.9086621
7.9086625
8.0111772
8.0415918
8.0099881
7.9185238
8.0717962
8.0312748
8.0482183
8.0386061
8.0112867
8.068695
8.0579082
7.91042
7.9232891
8.2012623
8.046487
8.0888121
8.2303362
7.9879833
8.0808498
8.0901011
8.0868939
8.0822534
8.0013536
7.9974495
8.0000013
7.9498321
8.0720567
8.0608844
7.9595729
8.2402196
8.228373
7.9886001
8.05726
7.9887334
8.0388073
8.0125846
8.0341688
7.9833572
8.069662
8.1270415
8.1029494
8.0254606
8.0021541
7.994938
8.0939324
8.0911663
7.9609229
8.0837826
7.9725051
7.9735766
7.9675479
7.9733286
7.9742315
8.0915214
8.0623771
7.9758801
8.1349502
8.2094149
7.9503229
8.1358315
7.9398694
7.9474695
8.0964183
7.9804046
7.9892025
7.9892285
8.1539312
8.0693183
8.0213572
8.0117278
8.0388883
8.1270262
8.1188565
8.0023838
8.0163871
8.1810693
7.9842482
8.3849702
7.9543489
7.9420304
8.081534
7.9532443
8.0731912
7.9846862
8.0355853
7.9879809
8.0486403
8.7684528
7.9859983
8.0046647
8.1239856
7.9663286
8.0726255
7.9953943
8.1593515
8.0025193
8.0012746
8.0053011
8.3167869
8.377401
8.3268779
8.3347667
8.3503188
8.3000686
8.413053
8.224126
8.0030333
8.3160992
7.9752551
7.9730907
7.9871366
8.0035652
7.9754477
8.0004226
8.3302561
8.4565624
7.9868765
8.0324305
8.2317533
8.0254583
8.2371922
8.0556903
8.0922533
8.0770512
8.1116336
8.120142
8.3247805
8.0292037
8.0864148
8.0565095
8.1162373
8.0000318
8.00354
8.2723958
8.1191298
8.045247
8.0685367
7.9931631
8.0513213
8.1300149
8.0221475
7.9667322
7.9698675
7.981997
8.0067798
8.2960887
8.0678602
8.1555563
8.2301088
8.1502501
8.1204373
8.1508145
8.2072222
7.9416154
7.9410769
8.1304931
7.9542275
8.1255751
7.9702282
8.0662803
7.970478
8.0145855
8.0075884
7.9601723
7.9290515
7.9842654
7.9740888
7.9719811
7.9710169
7.9653452
7.9590331
7.9695587
7.9592444
8.3471838
8.1692949
8.1386116
8.1307802
8.354087
8.0612754
7.9983345
8.2597474
8.3086554
7.9637348
7.9387571
8.1490778
8.2457031
8.2796963
7.9126131
7.8963221
7.9116921
8.0144218
8.1075848
8.1320404
8.1265506
8.1532031
7.9922064
8.2313577
8.1268195
7.9698693
7.9694564
7.9277385
8.0022078
8.1806242
8.0726585
7.9271205
8.0593967
8.0052513
8.0979031
8.0973924
7.9164621
7.9353478
8.1978129
8.0228426
8.0879484
8.2301434
7.9879543
8.0553683
8.0267493
7.9611339
8.1764551
8.1897142
7.9814428
8.0691415
7.9882745
8.0733125
8.0496521
8.0849378
8.0138039
8.0730043
8.0071358
7.9732143
8.1194211
8.0913202
8.0017947
8.2285892
8.2333855
7.9415422
8.0708976
7.9424133
7.9415223
8.0832565
7.9864202
7.9857087
7.9832625
8.18153
7.9848683
8.023555
8.0002318
8.027731
8.06211
8.0083254
8.0117943
7.9976319
8.2341726
8.0100491
8.0111373
7.9672279
7.9455805
8.1311208
7.9608654
8.0960311
7.9875056
8.0401367
8.6077654
8.0436507
8.8080916
8.0251532
8.0179971
8.0347881
8.4775142
8.426856
8.2388066
8.3010716
7.9720526
7.996352
7.9756749
8.0081365
8.3636997
8.3725578
7.9938513
8.0419054
8.2978346
8.0355419
8.2295084
8.029631
8.0680456
8.0881961
8.1310269
8.1109606
8.3179167
8.0573202
8.012644
8.0717654
8.1102725
7.9945742
7.9802619
8.0623808
8.2651105
8.1454744
8.1281416
7.9438224
7.9442605
8.1886052
7.9567478
8.2050168
7.9827084
8.091185
7.9609682
7.994869
8.3603004
8.0989239
7.9269766
7.9401637
7.9363985
7.9988538
8.2938508
8.276392
7.9496397
7.9228771
8.091118
8.1421259
8.1072674
8.1176295
8.0777124
8.2758132
7.9297903
7.8899894
7.9103525
8.02414
7.9271532
7.9252062
7.9287457
8.1259606
8.1480163
8.1393925
8.1668974
8.0593382
8.0635604
8.0613004
8.1306361
8.073354
8.1682539
8.1167923
8.0952473
8.1871847
8.2215388
8.2018567
8.245656
8.0364721
8.2760258
8.0559146
8.1014027
8.2053113
8.2331441
8.1140405
7.9654662
8.0254956
8.0746123
8.0711627
8.1202919
8.120268
7.9105871
7.9086769
7.9090707
8.0108021
8.04017
8.0080288
7.9184072
8.0709127
8.030755
8.0476842
8.0377921
8.0105895
8.0666065
8.0564831
7.9102567
7.923495
8.1984885
8.0460107
8.0875218
8.2287648
7.9878566
8.0792518
8.0884776
8.0854325
8.0807547
8.0011234
7.9972658
7.9996958
7.9499631
8.0711781
8.0595887
7.9595851
8.2395828
8.2264005
7.9882149
8.0565499
7.9882778
8.0382184
8.0116676
8.0336007
7.9832152
8.0682953
8.1252639
8.1010871
8.0249081
8.001958
7.9947316
8.0927049
8.0900622
7.9610309
8.082821
7.9724733
7.9734015
7.9674216
7.9730665
7.9736701
8.0896436
8.0608178
7.9757064
8.1343393
8.2070761
7.9502977
8.1337183
7.9399445
7.9473418
8.0956779
7.9801123
7.9889668
7.9889324
8.1520383
8.0673918
8.0206894
8.0111873
8.0383222
8.1242196
8.1169949
8.0018
8.0155661
8.1791444
7.9840311
8.3820522
7.9544029
7.9420365
8.0806683
7.9532707
8.0727698
7.9842851
8.0344493
7.988127
8.0476915
8.7583672
7.9856136
8.0040399
8.1211052
7.9665704
8.0716172
7.9945048
8.1589297
8.001671
7.9995958
8.0038223
8.3111644
8.3694449
8.3224578
8.3302822
8.3422939
8.2940415
8.4050845
8.2195797
8.003018
8.3127003
7.9746897
7.9725971
7.986993
8.0032165
7.9754295
7.9987526
8.3281511
8.4542255
7.9865494
8.0320396
8.2301576
8.0252577
8.235556
8.0548064
8.0919101
8.0768281
8.1111743
8.119675
8.3183109
8.0291153
8.0862747
8.0565072
8.1141024
7.9982791
8.0024656
8.265109
8.1186168
8.0428086
8.0654976
7.9925505
8.0493834
8.1271044
8.0212861
7.9664633
7.9696674
7.9816305
8.0066674
8.2932942
8.0672706
8.1528706
8.2251178
8.1490966
8.1192222
8.1478565
8.2012481
7.9416258
7.9411316
8.1295664
7.954131
8.1244428
7.9700982
8.0659401
7.9702979
8.0143025
8.0064392
7.9594516
7.9290168
7.9840329
7.9733896
7.971139
7.9701294
7.965264
7.9585215
7.9695356
7.9590535
8.3347164
8.1654864
8.1375902
8.128811
8.3502558
8.0601671
7.9978288
8.2571443
8.3036411
7.9635089
7.9386003
8.1457302
8.243697
8.2727651
7.9130377
7.8963563
7.9116672
8.0133428
8.1033311
8.1267866
8.1216549
8.147286
7.9921492
8.2297979
8.1258853
7.9696845
7.9694335
7.9282224
8.0016517
8.1737208
8.0717854
7.9273382
8.0589405
8.0040937
8.0950296
8.0955353
7.9166367
7.9353985
8.195617
8.0225309
8.0859105
8.227862
7.9877049
8.0540523
8.026036
7.9606397
8.174965
8.1884633
7.9809126
8.0677467
7.9879448
8.072034
8.0485236
8.0839466
8.0134128
8.0717692
8.0068029
7.9727502
8.1158177
8.0894126
8.0015754
8.2264676
8.2318902
7.9416496
8.0697405
7.9424576
7.9415524
8.0826389
7.9860247
7.9854012
7.9829527
8.1791159
7.9846936
8.022748
7.9998113
8.0271049
8.0606007
8.0079931
8.0106805
7.9971617
8.2309276
8.0094857
8.0108591
7.9670623
7.9455303
8.1294333
7.9608568
8.0955356
7.9869281
8.0389683
8.5931455
8.0428358
8.7972128
8.0242405
8.0170348
8.033364
8.468315
8.4235754
8.23132
8.2944477
7.9716361
7.9960706
7.9756188
8.0057541
8.3595469
8.3700704
7.9936946
8.0415464
8.2960635
8.0354261
8.2280415
8.0285942
8.0676705
8.087912
8.1300648
8.11083
8.3118384
8.0554687
8.0123795
8.0703385
8.1088915
7.9942616
7.9800986
8.0614309
8.2626662
8.1433824
8.1254341
7.9437417
7.9441898
8.187021
7.9567578
8.2026911
7.9828332
8.0909629
7.9608369
7.9930646
8.3429701
8.0946048
7.9270747
7.9401454
7.9364626
7.9959767
8.2872559
8.2683567
7.9492249
7.9228647
8.0881404
8.1392901
8.1049884
8.1145114
8.0745943
8.2637637
7.9300908
7.8900448
7.9101969
8.0224999
7.927277
7.9254112
7.9291252
8.1137388
8.1335223
8.1255117
8.1503089
8.0525254
8.0574347
8.0546062
8.1215825
8.0682707
8.1561638
8.1072151
8.0869696
8.1728469
8.2010494
8.1830589
8.2269145
8.0357935
8.2725719
8.0552313
8.0988001
8.2026089
8.2268107
8.1089249
7.9643221
8.0221352
8.073648
8.0692646
8.1175038
8.1165749
7.9114153
7.9089696
7.9098418
8.0095938
8.0364501
8.0031628
7.9185034
8.0681492
8.0289873
8.046196
8.0353069
8.0089576
8.0615368
8.052868
7.9099551
7.9237962
8.1917437
8.0448085
8.0839885
8.2249716
7.9876941
8.0759982
8.0850508
8.0824441
8.0777744
8.0004755
7.9966563
7.9989796
7.9501585
8.0689033
8.0562082
7.9594391
8.2377457
8.2211942
7.9875075
8.05466
7.9871437
8.0372899
8.0091235
8.0319892
7.9826919
8.0653887
8.121337
8.0968007
8.0236232
8.0013046
7.9939067
8.0894919
8.0872214
7.9610671
8.0803619
7.9721981
7.9727928
7.9669919
7.9722887
7.9726631
8.0851584
8.0567076
7.975073
8.13266
8.2009354
7.9499433
8.1283584
7.9399082
7.9467899
8.0934623
7.9793055
7.9881326
7.988058
8.147694
8.0638768
8.0188633
8.0098753
8.0367419
8.1187908
8.1133857
8.0001551
8.0134216
8.1737672
7.9833011
8.3736308
7.9542896
7.9419582
8.0781956
7.9531972
8.0713736
7.9832393
8.0319326
7.9878174
8.0454269
8.7326207
7.9845796
8.002434
8.1145147
7.9666366
8.0689863
7.9919689
8.1562851
7.9995277
7.9955458
8.0004063
8.2961748
8.349027
8.3106482
8.3182894
8.3225674
8.2784813
8.3858175
8.207571
8.0025253
8.3041492
7.973156
7.9711939
7.9865506
8.0021366
7.9752156
7.9947093
8.3217739
8.4468561
7.9858764
8.0310812
8.2260969
8.0246197
8.2305007
8.0526403
8.0909172
8.07632
8.1100248
8.1182826
8.3016385
8.0286095
8.0856619
8.0563244
8.1091844
7.9944401
7.9999439
8.2469446
8.1172165
8.0373204
8.0587646
7.990662
8.0448163
8.1205281
8.019258
7.9656878
7.9691071
7.9806654
8.0059233
8.2856661
8.0656212
8.1456531
8.2123574
8.1455661
8.1155758
8.1394546
8.1858124
7.9415007
7.9410503
8.1268842
7.9539656
8.1212455
7.9697839
8.0652147
7.9696611
8.0133337
8.0035485
7.957488
7.9285901
7.9833942
7.9715886
7.9686578
7.9675155
7.9648002
7.9569872
7.9693333
7.9581638
8.3054624
8.1553116
8.1342685
8.123197
8.3402969
8.0569773
7.9964916
8.2495404
8.2911541
7.9629468
7.9383459
8.1377191
8.2379992
8.2552195
7.9136756
7.8963462
7.9117531
8.0105672
8.0926796
8.1137761
8.1095027
8.1325683
7.9917879
8.2257881
8.1230167
7.9691108
7.9692417
7.9287745
7.9998148
8.157742
8.0690919
7.92774
8.0572998
8.0011445
8.0880424
8.0904496
7.9168122
7.9354928
8.1902797
8.0216234
8.0802291
8.2218655
7.9872361
8.0506794
8.0240828
7.9600013
8.1711112
8.1853018
7.9799157
8.0641553
7.9874756
8.0685941
8.0456978
8.0813839
8.0123572
8.0692867
8.0058009
7.9718513
8.1078522
8.084718
8.0010624
8.2207279
8.2276603
7.9416912
8.0669425
7.9424537
7.9413926
8.0807171
7.9848336
7.9844089
7.9820253
8.1734105
7.98411
8.0205442
7.9987048
8.0252805
8.057503
8.0069898
8.0079662
7.9957342
8.2221887
8.007773
8.0097586
7.9663393
7.9452871
8.1247561
7.9605752
8.0938142
7.985452
8.0362341
8.5579615
8.0406402
8.7697977
8.0218072
8.0147465
8.029972
8.4453342
8.4143729
8.2143191
8.2775129
7.9702784
7.9948819
7.9752723
8.0004209
8.3486262
8.3627101
7.9930865
8.040609
8.2914066
8.0348788
8.2234435
8.0259511
8.0666795
8.0871297
8.1276349
8.1102184
8.2962376
8.0510649
8.0116218
8.0670477
8.1051916
7.993331
7.979555
8.0588012
8.2550295
8.1372866
8.1179242
7.9433128
7.9437434
8.1826146
7.9566255
8.1962973
7.982754
8.0903381
7.9603134
7.9887549
8.312907
8.0865094
7.9265478
7.939698
7.9357038
7.9908369
8.2749856
8.2533264
7.9480832
7.9227229
8.0821396
8.1337672
8.1002992
8.108522
8.0684782
8.2423913
7.929582
7.8900335
7.9098562
8.0191914
7.9269511
7.9253978
7.9290068
8.0925702
8.1090865
8.1021405
8.1229443
8.0397139
8.0461967
8.0418505
8.1049815
8.0580739
8.13501
8.09034
8.0722572
8.1486104
8.1675744
8.1521792
8.1959862
8.0344277
8.2660045
8.0538196
8.0936863
8.1972347
8.2144452
8.0985632
7.9615863
8.0158868
8.0716588
8.0655545
8.1119211
8.109347
7.9122844
7.9094927
7.9107124
8.0070102
8.0295744
7.9949246
7.9187215
8.0628556
8.0254437
8.043292
8.0304367
8.0056699
8.0518642
8.0458555
7.9093327
7.9240204
8.178537
8.0425565
8.0769204
8.2178659
7.9874049
8.0700709
8.0787389
8.0770323
8.072385
7.9989459
7.9950212
7.9973866
7.9500315
8.0643961
8.049504
7.9586757
8.2340371
8.2111228
7.986102
8.0509887
7.9847931
8.035768
8.0039796
8.0286274
7.981379
8.0599406
8.1141207
8.0886902
8.0210718
7.9996315
7.9916791
8.0833075
8.0816893
7.9606889
8.0756401
7.9713191
7.9713397
7.96595
7.9705797
7.9708903
8.0773641
8.0489486
7.9734671
8.1294754
8.1896356
7.9489185
8.1182199
7.9394613
7.9454224
8.0891367
7.9774848
7.9862109
7.9860358
8.1395484
8.0579724
8.0151683
8.0072171
8.0332554
8.1094613
8.1070888
7.9968789
8.0094139
8.163345
7.9815831
8.3578058
7.9536015
7.941519
8.0730045
7.9526845
8.0684126
7.9810386
8.0273985
7.9864137
8.0410956
8.6874629
7.9823753
7.9993365
8.1033461
7.966043
8.0642835
7.9868866
8.149832
7.995403
7.9883613
7.9944383
8.2694982
8.3146523
8.2891112
8.2968349
8.289319
8.2509315
8.3529847
8.1859185
8.0009894
8.2880262
7.9700621
7.9682489
7.9854407
7.9996036
7.9744854
7.9876018
8.309904
8.4330496
7.984584
8.0291333
8.21836
8.023326
8.2209105
8.0487805
8.0889495
8.0750895
8.107691
8.1156589
8.2723545
8.0272152
8.0839
8.0553328
8.1007856
7.9880039
7.9953207
8.2169174
8.1146032
8.0280671
8.0475009
7.9867178
8.0368458
8.1093909
8.01558
7.9639613
7.9678638
7.9787088
8.0041342
8.2716191
8.062316
8.1320228
8.1904076
8.1385205
8.1084564
8.1239422
8.1596953
7.9410515
7.940518
8.1216036
7.9536407
8.1149239
7.9691362
8.0638755
7.9683035
8.0113544
7.9982821
7.9537208
7.9272965
7.9822034
7.9683036
7.963755
7.9623741
7.9634085
7.953829
7.9686443
7.9558163
8.2604672
8.1372519
8.1275966
8.1124228
8.3220135
8.0508563
7.9939006
8.23571
8.2688961
7.9616473
7.9376537
8.1239924
8.227429
8.2249298
7.9141321
7.8961849
7.9117304
8.0051405
8.0740282
8.0917758
8.088642
8.1079552
7.9913161
8.2182179
8.1173937
7.9677558
7.9686507
7.9287358
7.995814
8.13261
8.0640739
7.9281708
8.0540647
7.9951751
8.0752662
8.0811991
7.9167173
7.9353418
8.1798905
8.0197718
8.0686924
8.2101495
7.9863511
8.0441887
8.0200596
7.9589803
8.163613
8.1792192
7.978024
8.0572085
7.9867655
8.0615483
8.0403529
8.076535
8.0101731
8.0647272
8.0034824
7.9701482
8.094705
8.0762773
8.0000164
8.2099402
8.2195597
7.9413833
8.061571
7.9421092
7.9407299
8.0768937
7.9822245
7.9822289
7.9798277
8.1629144
7.9828417
8.0160889
7.9963296
8.0213067
8.0519078
8.0049462
8.0030333
7.9927935
8.2059559
8.0042915
8.0074276
7.9645235
7.9445447
8.1155356
7.9596204
8.0901975
7.9824899
8.0312606
8.5006105
8.0362332
8.7218993
8.0170634
8.0105656
8.0239192
8.4064791
8.3969179
8.1867033
8.2472548
7.9671945
7.9919756
7.9742762
7.9916598
8.3293073
8.3489666
7.9917451
8.0387409
8.2826042
8.033722
8.2146086
8.0210321
8.0646115
8.085202
8.1229852
8.1089182
8.2687818
8.0434081
8.0102079
8.0613065
8.0982312
7.9914088
7.9782689
8.0535572
8.2410532
8.1255556
8.1041624
7.9422403
7.9425359
8.1742468
7.9562583
8.1841725
7.9823624
8.0891208
7.9590215
7.9813075
8.2700614
8.0741061
7.924883
7.938249
7.9334569
7.9831764
8.2559279
8.2295628
7.9457062
7.9222043
8.0718646
8.1244657
8.0922789
8.0988346
8.0584792
8.2111058
7.9278062
7.8898247
7.9091216
8.0134518
7.9256723
7.9247609
7.9277791
8.0638254
8.0767025
8.0710643
8.0873644
8.0211178
8.0296635
8.0231788
8.0808413
8.0421199
8.1054064
8.0664947
8.0512025
8.115675
8.1244765
8.1121516
8.1550205
8.0319101
8.2550723
8.0511332
8.0849877
8.1884077
8.194429
8.0817323
7.9566299
8.0061904
8.0681715
8.0593625
8.102383
8.0975446
7.9127073
7.9101233
7.9112323
8.0023564
8.019085
7.983645
7.91901
8.0544345
8.0195328
8.038344
8.0225383
7.9998984
8.0368889
8.0344916
7.9082643
7.9238498
8.1567509
8.0389041
8.0652466
8.2060637
7.9868313
8.0603721
8.068373
8.0681658
8.0635466
7.995847
7.991529
7.9942271
7.9489802
8.0567119
8.0384858
7.9566382
8.227459
8.1944832
7.9834481
8.0448078
7.9805667
8.0333509
7.99557
8.0227243
7.9787041
8.050852
8.1023506
8.0754866
8.0165444
7.9961677
7.9871633
8.0731191
8.0723954
7.9593807
8.0677189
7.9692977
7.9685047
7.9638377
7.9674223
7.9679299
8.065871
8.0368863
7.9702362
8.1241398
8.1720861
7.9467815
8.1023098
7.9381525
7.9427914
8.0818641
7.973993
7.9826077
7.9821635
8.1261732
8.0488574
8.008889
8.0025074
8.0268408
8.0949665
8.097016
7.9914284
8.0030741
8.146562
7.9782566
8.3328575
7.9517709
7.9402953
8.0638991
7.9512143
8.0630165
7.9771013
8.0202641
7.9831468
8.0338767
8.6217491
7.9783939
7.994202
8.0873319
7.9641531
8.0570368
7.978804
8.1381677
7.9887531
7.9779229
7.9856341
8.2312278
8.2678473
8.2568114
8.2652595
8.2436384
8.211554
8.3066614
8.1545907
7.9977663
8.262386
7.9649104
7.9632263
7.9831174
7.99486
7.9727329
7.9773826
8.2916065
8.411628
7.9822618
8.0255531
8.2055316
8.0209998
8.2056782
8.0428783
8.085537
8.0724756
8.1034361
8.1115002
8.2307557
8.0243173
8.0799883
8.0525458
8.0884742
7.9788207
7.9880582
8.1767188
8.1104382
8.0149548
8.0316694
7.9801519
8.0251803
8.0933341
8.0097659
7.9607567
7.9654802
7.9752878
8.000738
8.2498394
8.0565569
8.1111577
8.1596352
8.1267458
8.0968684
8.101107
8.1245454
7.9399674
7.9390871
8.1127482
7.9530238
8.1043261
7.9678965
8.0616048
7.9658461
8.0079343
7.9902734
7.947885
7.9247499
7.9802332
7.9632472
7.9562352
7.954571
7.9604454
7.948685
7.9669813
7.9514115
8.2046324
8.1114327
8.1164495
8.0955865
8.2938107
8.0412791
7.9895772
8.214971
8.2360248
7.9590515
7.9361317
8.1042875
8.2109306
8.1831983
7.9139176
7.8956973
7.9114455
7.9964663
8.0484662
8.0624496
8.0603991
8.0755129
7.9903209
8.2057283
8.1081389
7.9650691
7.9672789
7.9274151
7.9889503
8.1003629
8.0563899
7.9282609
8.0486839
7.9855449
8.0561875
8.0673392
7.9159772
7.934589
8.162608
8.0165574
8.0506183
8.1909146
7.9846956
8.0337344
8.0131228
7.9572989
8.1510031
8.1689104
7.9746776
8.0459756
7.9856967
8.0497557
8.0317782
8.0686647
8.0062579
8.0571061
7.9990461
7.9671417
8.076329
8.0634374
7.9980399
8.1927446
8.2062736
7.940279
8.0524548
7.9409736
7.9391253
8.0703896
7.9775284
7.9782913
7.9756178
8.1462252
7.9804634
8.0086322
7.9919773
8.014239
8.0428251
8.0013818
7.9954598
7.9877815
8.1811599
7.9984576
8.0033882
7.961024
7.9428606
8.1005269
7.9574379
8.0837249
7.9774614
8.0234387
8.4245401
8.0288315
8.6523613
8.0093646
8.0039854
8.0147667
8.3526982
8.3691501
8.1497769
8.2040583
7.9617899
7.9866137
7.9721121
7.9797175
8.3009585
8.3276453
7.9892364
8.035401
8.268195
8.0316621
8.2003809
8.0133273
8.0607758
8.0811732
8.1151921
8.1066791
8.2294964
8.0321336
8.0079238
8.0527019
8.0872381
7.9880184
7.9757412
8.0447548
8.2201045
8.1073175
8.0838834
7.9401554
7.9401319
8.1607621
7.9554848
8.1650961
7.9814644
8.0869996
7.9564755
7.9708043
8.2185349
8.0577603
7.9220744
7.9355074
7.929774
7.9733553
8.2302754
8.1976375
7.941909
7.9210296
8.057295
8.1108092
8.0805035
8.085292
8.0446761
8.1722247
7.9247019
7.8893231
7.9077857
8.0050153
7.9232797
7.9232141
7.925321
8.0321117
8.0414765
8.0371552
8.0490977
7.9997253
8.0098387
8.0016135
8.0522724
8.0222483
8.0712523
8.0388152
8.0265497
8.0783934
8.078408
8.0691219
8.1095011
8.0279525
8.2388118
8.0466067
8.0723178
8.1755875
8.1671612
8.0597611
7.9497702
7.9936454
8.0627026
8.0503314
8.0885524
8.0812221
7.912369
7.9106558
7.9110995
7.9953608
8.0056124
7.9704584
7.9192193
8.04291
8.0111165
8.0309212
8.0117448
7.9914572
8.0181326
8.0193875
7.9066133
7.9229877
8.1275119
8.0335456
8.0492755
8.1887059
7.9857372
8.0466085
8.0537111
8.0553784
8.0508026
7.9906905
7.9857376
7.9889911
7.9465334
8.045511
8.0236461
7.9529689
8.2170022
8.170963
7.9790674
8.0357599
7.9742311
8.0297323
7.9844162
8.0140144
7.9742919
8.0378572
8.0856793
8.0575087
8.0095882
7.9904816
7.9801894
8.0588206
8.0590673
7.9567345
8.0562022
7.9657554
7.9640232
7.9603269
7.9626013
7.9634674
8.0510534
8.0212775
7.9651232
8.1161139
8.148537
7.943341
8.0811669
7.9357057
7.9387959
8.0712002
7.968554
7.9770739
7.9761658
8.1072525
8.0361372
7.9999667
7.9954242
8.0172165
8.0751852
8.0825275
7.9837964
7.9944669
8.1237912
7.9730531
8.2989132
7.9484901
7.9379696
8.0506974
7.948428
8.0546071
7.9712447
8.0104937
7.977682
8.0236118
8.5398042
7.9724327
7.9869162
8.0674105
7.9605696
8.0471169
7.9684222
8.1209619
7.9797929
7.9653721
7.9746175
8.1853181
8.213663
8.2159022
8.2256733
8.1905971
8.1647794
8.2509409
8.1171146
7.9924983
8.2277483
7.957866
7.9563026
7.9791625
7.9877082
7.9695486
7.9651208
8.2671555
8.3826403
7.9785195
8.0197856
8.186877
8.0172372
8.1847087
8.0348669
8.0802102
8.0677725
8.0965298
8.1056587
8.1813997
8.0194403
8.0730554
8.0470351
8.0725362
7.9676189
7.9784117
8.1311682
8.104514
7.9991027
8.0127494
7.9712819
8.0105835
8.0731887
8.0017132
7.955907
7.9616515
7.9701833
7.9954066
8.2206662
8.0478414
8.0847374
8.1231199
8.1100613
8.0808448
8.0733121
8.0850784
7.9379838
7.936495
8.0998507
7.9519223
8.0891976
7.965772
8.0580393
7.9620585
8.0028018
7.9799751
7.9404824
7.9210507
7.9772656
7.9565687
7.9469452
7.9450446
7.9557336
7.9419238
7.9639454
7.9452129
8.1453903
8.0806223
8.1006471
8.073742
8.2565574
8.0285192
7.9832916
8.1881868
8.1949031
7.9548467
7.9334847
8.0800392
8.1885408
8.1354563
7.9128147
7.8947748
7.9106151
7.9850751
8.0200803
8.0303866
8.0292803
8.0403141
7.9886471
8.1875701
8.0949603
7.9607511
7.9647609
7.9247794
7.9795376
8.0649082
8.0462156
7.9276392
8.0408735
7.9734057
8.0330393
8.0496478
7.9144055
7.9329021
8.1383902
8.0116384
8.028388
8.1642679
7.9818787
8.0197051
8.0032276
7.9546448
8.132775
8.1535216
7.9695193
8.030867
7.9841498
8.0337902
8.0200756
8.0575513
8.0002378
8.0458852
7.992169
7.9625008
8.0540479
8.0467255
7.9947034
8.1691401
8.1872507
7.9380673
8.0395288
7.9387059
7.9363433
8.0607181
7.9706704
7.9724256
7.9692316
8.1234071
7.9766269
7.9983276
7.9853604
8.0040765
8.0300457
7.9960074
7.9855485
7.9806478
8.149348
7.9902811
7.9974442
7.9557538
7.9399616
8.0802923
7.9537379
8.0738184
7.9703562
8.012794
8.3389149
8.0183731
8.5658114
7.9989071
7.9950374
8.0028951
8.2894843
8.3312762
8.1078697
8.1536
7.9543907
7.9788487
7.9684264
7.9659093
8.2650613
8.2989827
7.9852008
8.0300613
8.2473413
8.0283664
8.1805161
8.0030284
8.054539
8.07417
8.1036913
8.1032598
8.1823941
8.0178008
8.0045753
8.0413175
8.0723567
7.9828929
7.9716421
8.0323671
8.1930453
8.0838365
8.0590475
7.9369103
7.9364322
8.1419702
7.9541051
8.1396934
7.9798154
8.0836277
7.9524489
7.9584505
8.1659857
8.0395628
7.9186363
7.9319002
7.9254535
7.9627349
8.2004938
8.1617153
7.9372338
7.9191778
8.0403544
8.0938439
8.0660877
8.0691952
8.0288698
8.1314655
7.921018
7.8885349
7.905964
7.9948127
7.9202095
7.9209353
7.9221696
8.0023318
8.0085963
8.0054783
8.0135919
7.9791278
7.9899941
7.9808353
8.0240345
8.0020053
8.037954
8.0117924
8.0023799
8.042436
8.0358721
8.0292342
8.0661182
8.0224827
8.2177836
8.0401036
8.056929
8.1594185
8.1362813
8.0364705
7.9422655
7.9801877
8.0553258
8.0391451
8.0718241
8.0623768
7.9114149
7.9108247
7.9104418
7.9867607
7.9910457
7.9570517
7.9191499
8.0294889
8.0010638
8.0214688
7.9994222
7.981527
7.9990592
8.0030675
7.9045349
7.9214384
8.0958656
8.0266243
8.0313386
8.1668136
7.9839164
8.0304786
8.0366455
8.0399192
8.0354467
7.983866
7.9783358
7.9820747
7.9429586
8.0319524
8.0073588
7.948164
8.2026076
8.1432243
7.9731609
8.0245726
7.9665828
8.0247999
7.9723164
8.0034359
7.9684961
8.0226502
8.0660028
8.0376085
8.0007392
7.9831595
7.9718375
8.0421521
8.0432402
7.9529082
8.0421721
7.9609619
7.958361
7.9556657
7.956649
7.9577611
8.0344975
8.0044631
7.9587854
8.1054657
8.1216467
7.938983
8.0578503
7.9323723
7.9339745
8.0579221
7.9618307
7.9701892
7.9687826
8.0850103
8.0208171
7.989517
7.9867037
8.0056366
8.0526425
8.0646599
7.9748967
7.984565
8.09802
7.9665177
8.2595171
7.9441599
7.9347372
8.0351757
7.944585
8.0437545
7.9641543
7.9991396
7.9707067
8.0114393
8.4523836
7.96519
7.9782675
8.046024
7.9556711
8.0353032
7.9573986
8.0994952
7.9697704
7.9525996
7.9629711
8.1386217
8.1596239
8.1721275
8.1832823
8.1380344
8.1180289
8.1938254
8.0794727
7.985612
8.1884755
7.9499755
7.9485599
7.9738055
7.9790399
7.965092
7.9526125
8.2388267
8.3484629
7.9734428
8.0120421
8.1637199
8.0119996
8.159952
8.0253291
8.0729382
8.0607879
8.0869555
8.0983973
8.1319088
8.0127373
8.0632589
8.0388855
8.054549
7.956027
7.9678137
8.0867915
8.0970355
7.9828132
7.9935668
7.9614597
7.9950237
8.0513953
7.9921772
7.9500364
7.9566694
7.9638729
7.9885587
8.1872235
8.0367489
8.0569388
8.0860949
8.0903336
8.0622493
8.0448166
8.0470659
7.9351798
7.9330222
8.0839224
7.950211
8.0711797
7.9626859
8.0530359
7.9572055
7.9962647
7.9687942
7.9326114
7.9167799
7.9733152
7.9490895
7.9373001
7.935234
7.9499534
7.934578
7.9596865
7.938338
8.090484
8.0494962
8.0819114
8.0501546
8.214814
8.0142092
7.9756424
8.1583826
8.15141
7.9495167
7.92998
8.0544525
8.1623482
8.089061
7.9110966
7.8935045
7.909235
7.972778
7.9933144
8.0003497
8.0000964
8.0074881
7.9859774
8.1649515
8.0790361
7.9552618
7.9611162
7.9214808
7.9690596
8.031022
8.0345264
7.9262424
8.0311394
7.9611201
8.0099516
8.0304457
7.9122289
7.9303706
8.110601
8.0052203
8.0060672
8.1337702
7.9777857
8.0042202
7.9917494
7.9509339
8.1107832
8.1340437
7.9630172
8.0141533
7.9820596
8.0163045
8.006715
8.0441831
7.9925496
8.0320649
7.9836763
7.9566288
8.0308723
8.0283687
7.9899502
8.1416881
8.1639503
7.9349382
8.0244343
7.9354979
7.9326959
8.0485782
7.9626263
7.9653036
7.9616287
8.0973352
7.9714966
7.9866365
7.9772442
7.992328
8.0152054
7.9891842
7.9745905
7.9722541
8.1151199
7.9807598
7.990103
7.9494705
7.9361529
8.0578567
7.9489452
8.0612153
7.9621538
8.0005642
8.2558589
8.0061399
8.4736717
7.9871111
7.984746
7.989844
8.2257766
8.2875091
8.0673616
8.1043546
7.9462611
7.9698266
7.9634949
7.9521991
8.225761
8.2656631
7.9797969
8.0227792
8.2213014
8.023752
8.1567927
7.9913983
8.0460056
8.0642941
8.0891936
8.0986596
8.1346577
8.002271
8.0001855
8.0281489
8.0552642
7.976422
7.9662722
8.0180219
8.1628105
8.0586188
8.0334167
7.9328559
7.9319268
8.1196794
7.952049
8.1113293
7.9773177
8.0788325
7.9473788
7.9460857
8.1208193
8.0227487
7.9152295
7.9283447
7.9213316
7.9530889
8.1717338
8.1286646
7.9327039
7.9170903
8.0244704
8.0768266
8.0517814
8.053481
8.0140826
8.0957154
7.9174457
7.8876148
7.9041221
7.9849557
7.9171706
7.9185103
7.9190496
7.9778392
7.9816755
7.9795348
7.9846664
7.9618027
7.9729795
7.9633547
8.0001438
7.9845582
8.010048
7.9891145
7.9820464
8.0125753
8.0014632
7.9968531
8.0304341
8.0163788
8.1954697
8.0326872
8.0419103
8.1425351
8.1076967
8.0160324
7.9354656
7.9681665
8.0471775
8.0278523
8.0555114
8.0445926
7.9102219
7.9106055
7.909509